+ 0.0001 0 2 udp 1000 ------- 1 0.0 4.0 0 0
- 0.0001 0 2 udp 1000 ------- 1 0.0 4.0 0 0
+ 0.0001 0 2 udp 1000 ------- 1 0.0 4.0 1 1
+ 0.0001 0 2 udp 127 ------- 1 0.0 4.0 2 2
+ 0.011844 0 2 udp 112 ------- 1 0.0 4.0 3 3
+ 0.02821 0 2 udp 725 ------- 1 0.0 4.0 4 4
+ 0.032266 0 2 udp 89 ------- 1 0.0 4.0 5 5
- 0.0401 0 2 udp 1000 ------- 1 0.0 4.0 1 1
+ 0.055749 0 2 udp 223 ------- 1 0.0 4.0 6 6
- 0.0801 0 2 udp 127 ------- 1 0.0 4.0 2 2
- 0.08518 0 2 udp 112 ------- 1 0.0 4.0 3 3
- 0.08966 0 2 udp 725 ------- 1 0.0 4.0 4 4
- 0.11866 0 2 udp 89 ------- 1 0.0 4.0 5 5
+ 0.118776 0 2 udp 429 ------- 1 0.0 4.0 7 7
+ 0.121798 0 2 udp 107 ------- 1 0.0 4.0 8 8
- 0.12222 0 2 udp 223 ------- 1 0.0 4.0 6 6
- 0.13114 0 2 udp 429 ------- 1 0.0 4.0 7 7
r 0.1401 0 2 udp 1000 ------- 1 0.0 4.0 0 0
+ 0.1401 2 4 udp 1000 ------- 1 0.0 4.0 0 0
- 0.1401 2 4 udp 1000 ------- 1 0.0 4.0 0 0
- 0.1483 0 2 udp 107 ------- 1 0.0 4.0 8 8
+ 0.169058 0 2 udp 447 ------- 1 0.0 4.0 9 9
- 0.169058 0 2 udp 447 ------- 1 0.0 4.0 9 9
r 0.1801 0 2 udp 1000 ------- 1 0.0 4.0 1 1
+ 0.1801 2 4 udp 1000 ------- 1 0.0 4.0 1 1
- 0.1801 2 4 udp 1000 ------- 1 0.0 4.0 1 1
r 0.18518 0 2 udp 127 ------- 1 0.0 4.0 2 2
+ 0.18518 2 4 udp 127 ------- 1 0.0 4.0 2 2
r 0.18966 0 2 udp 112 ------- 1 0.0 4.0 3 3
+ 0.18966 2 4 udp 112 ------- 1 0.0 4.0 3 3
+ 0.196147 0 2 udp 184 ------- 1 0.0 4.0 10 10
- 0.196147 0 2 udp 184 ------- 1 0.0 4.0 10 10
+ 0.211414 0 2 udp 764 ------- 1 0.0 4.0 11 11
- 0.211414 0 2 udp 764 ------- 1 0.0 4.0 11 11
+ 0.214905 0 2 udp 195 ------- 1 0.0 4.0 12 12
+ 0.218129 0 2 udp 451 ------- 1 0.0 4.0 13 13
r 0.21866 0 2 udp 725 ------- 1 0.0 4.0 4 4
+ 0.21866 2 4 udp 725 ------- 1 0.0 4.0 4 4
- 0.2201 2 4 udp 127 ------- 1 0.0 4.0 2 2
+ 0.220127 0 2 udp 837 ------- 1 0.0 4.0 14 14
r 0.22222 0 2 udp 89 ------- 1 0.0 4.0 5 5
+ 0.22222 2 4 udp 89 ------- 1 0.0 4.0 5 5
- 0.22518 2 4 udp 112 ------- 1 0.0 4.0 3 3
- 0.22966 2 4 udp 725 ------- 1 0.0 4.0 4 4
r 0.23114 0 2 udp 223 ------- 1 0.0 4.0 6 6
+ 0.23114 2 4 udp 223 ------- 1 0.0 4.0 6 6
+ 0.238243 0 2 udp 58 ------- 1 0.0 4.0 15 15
+ 0.239348 0 2 udp 1000 ------- 1 0.0 4.0 16 16
+ 0.239348 0 2 udp 1000 ------- 1 0.0 4.0 17 17
+ 0.239348 0 2 udp 264 ------- 1 0.0 4.0 18 18
- 0.241974 0 2 udp 195 ------- 1 0.0 4.0 12 12
r 0.2483 0 2 udp 429 ------- 1 0.0 4.0 7 7
+ 0.2483 2 4 udp 429 ------- 1 0.0 4.0 7 7
- 0.249774 0 2 udp 451 ------- 1 0.0 4.0 13 13
r 0.25258 0 2 udp 107 ------- 1 0.0 4.0 8 8
+ 0.25258 2 4 udp 107 ------- 1 0.0 4.0 8 8
- 0.25866 2 4 udp 89 ------- 1 0.0 4.0 5 5
- 0.26222 2 4 udp 223 ------- 1 0.0 4.0 6 6
- 0.267814 0 2 udp 837 ------- 1 0.0 4.0 14 14
- 0.27114 2 4 udp 429 ------- 1 0.0 4.0 7 7
r 0.286938 0 2 udp 447 ------- 1 0.0 4.0 9 9
+ 0.286938 2 4 udp 447 ------- 1 0.0 4.0 9 9
- 0.2883 2 4 udp 107 ------- 1 0.0 4.0 8 8
- 0.29258 2 4 udp 447 ------- 1 0.0 4.0 9 9
+ 0.296156 0 2 udp 1000 ------- 1 0.0 4.0 19 19
+ 0.296156 0 2 udp 47 ------- 1 0.0 4.0 20 20
- 0.301294 0 2 udp 58 ------- 1 0.0 4.0 15 15
r 0.303507 0 2 udp 184 ------- 1 0.0 4.0 10 10
+ 0.303507 2 4 udp 184 ------- 1 0.0 4.0 10 10
- 0.303614 0 2 udp 1000 ------- 1 0.0 4.0 16 16
- 0.31046 2 4 udp 184 ------- 1 0.0 4.0 10 10
+ 0.317989 0 2 udp 179 ------- 1 0.0 4.0 21 21
r 0.341974 0 2 udp 764 ------- 1 0.0 4.0 11 11
+ 0.341974 2 4 udp 764 ------- 1 0.0 4.0 11 11
- 0.341974 2 4 udp 764 ------- 1 0.0 4.0 11 11
- 0.343614 0 2 udp 1000 ------- 1 0.0 4.0 17 17
+ 0.345163 0 2 udp 670 ------- 1 0.0 4.0 22 22
+ 0.347796 0 2 udp 1000 ------- 1 0.0 4.0 23 23
+ 0.347796 0 2 udp 796 ------- 1 0.0 4.0 24 24
r 0.349774 0 2 udp 195 ------- 1 0.0 4.0 12 12
+ 0.349774 2 4 udp 195 ------- 1 0.0 4.0 12 12
+ 0.364877 0 2 udp 121 ------- 1 0.0 4.0 25 25
r 0.367814 0 2 udp 451 ------- 1 0.0 4.0 13 13
+ 0.367814 2 4 udp 451 ------- 1 0.0 4.0 13 13
- 0.372534 2 4 udp 195 ------- 1 0.0 4.0 12 12
r 0.3801 2 4 udp 1000 ------- 1 0.0 4.0 0 0
- 0.380334 2 4 udp 451 ------- 1 0.0 4.0 13 13
- 0.383614 0 2 udp 264 ------- 1 0.0 4.0 18 18
- 0.394174 0 2 udp 1000 ------- 1 0.0 4.0 19 19
+ 0.398494 0 2 udp 788 ------- 1 0.0 4.0 26 26
r 0.401294 0 2 udp 837 ------- 1 0.0 4.0 14 14
+ 0.401294 2 4 udp 837 ------- 1 0.0 4.0 14 14
- 0.401294 2 4 udp 837 ------- 1 0.0 4.0 14 14
r 0.403614 0 2 udp 58 ------- 1 0.0 4.0 15 15
+ 0.403614 2 4 udp 58 ------- 1 0.0 4.0 15 15
+ 0.403651 0 2 udp 12 ------- 1 0.0 4.0 27 27
r 0.4201 2 4 udp 1000 ------- 1 0.0 4.0 1 1
r 0.42518 2 4 udp 127 ------- 1 0.0 4.0 2 2
r 0.42966 2 4 udp 112 ------- 1 0.0 4.0 3 3
- 0.434174 0 2 udp 47 ------- 1 0.0 4.0 20 20
- 0.434774 2 4 udp 58 ------- 1 0.0 4.0 15 15
- 0.436054 0 2 udp 179 ------- 1 0.0 4.0 21 21
+ 0.438089 0 2 udp 1000 ------- 1 0.0 4.0 28 28
+ 0.438089 0 2 udp 497 ------- 1 0.0 4.0 29 29
- 0.443214 0 2 udp 670 ------- 1 0.0 4.0 22 22
r 0.443614 0 2 udp 1000 ------- 1 0.0 4.0 16 16
+ 0.443614 2 4 udp 1000 ------- 1 0.0 4.0 16 16
- 0.443614 2 4 udp 1000 ------- 1 0.0 4.0 16 16
+ 0.452286 0 2 udp 154 ------- 1 0.0 4.0 30 30
r 0.45866 2 4 udp 725 ------- 1 0.0 4.0 4 4
r 0.46222 2 4 udp 89 ------- 1 0.0 4.0 5 5
+ 0.464874 0 2 udp 103 ------- 1 0.0 4.0 31 31
- 0.470014 0 2 udp 1000 ------- 1 0.0 4.0 23 23
r 0.47114 2 4 udp 223 ------- 1 0.0 4.0 6 6
r 0.483614 0 2 udp 1000 ------- 1 0.0 4.0 17 17
+ 0.483614 2 4 udp 1000 ------- 1 0.0 4.0 17 17
- 0.483614 2 4 udp 1000 ------- 1 0.0 4.0 17 17
r 0.4883 2 4 udp 429 ------- 1 0.0 4.0 7 7
r 0.49258 2 4 udp 107 ------- 1 0.0 4.0 8 8
r 0.494174 0 2 udp 264 ------- 1 0.0 4.0 18 18
+ 0.494174 2 4 udp 264 ------- 1 0.0 4.0 18 18
- 0.510014 0 2 udp 796 ------- 1 0.0 4.0 24 24
r 0.51046 2 4 udp 447 ------- 1 0.0 4.0 9 9
+ 0.513437 0 2 udp 67 ------- 1 0.0 4.0 32 32
r 0.51782 2 4 udp 184 ------- 1 0.0 4.0 10 10
+ 0.519785 0 2 udp 110 ------- 1 0.0 4.0 33 33
- 0.523614 2 4 udp 264 ------- 1 0.0 4.0 18 18
+ 0.52592 0 2 udp 102 ------- 1 0.0 4.0 34 34
r 0.534174 0 2 udp 1000 ------- 1 0.0 4.0 19 19
+ 0.534174 2 4 udp 1000 ------- 1 0.0 4.0 19 19
- 0.534174 2 4 udp 1000 ------- 1 0.0 4.0 19 19
r 0.536054 0 2 udp 47 ------- 1 0.0 4.0 20 20
+ 0.536054 2 4 udp 47 ------- 1 0.0 4.0 20 20
+ 0.537573 0 2 udp 949 ------- 1 0.0 4.0 35 35
- 0.541854 0 2 udp 121 ------- 1 0.0 4.0 25 25
r 0.543214 0 2 udp 179 ------- 1 0.0 4.0 21 21
+ 0.543214 2 4 udp 179 ------- 1 0.0 4.0 21 21
+ 0.545777 0 2 udp 492 ------- 1 0.0 4.0 36 36
- 0.546694 0 2 udp 788 ------- 1 0.0 4.0 26 26
+ 0.557875 0 2 udp 551 ------- 1 0.0 4.0 37 37
r 0.570014 0 2 udp 670 ------- 1 0.0 4.0 22 22
+ 0.570014 2 4 udp 670 ------- 1 0.0 4.0 22 22
r 0.572534 2 4 udp 764 ------- 1 0.0 4.0 11 11
- 0.574174 2 4 udp 47 ------- 1 0.0 4.0 20 20
- 0.576054 2 4 udp 179 ------- 1 0.0 4.0 21 21
- 0.578214 0 2 udp 12 ------- 1 0.0 4.0 27 27
- 0.578694 0 2 udp 1000 ------- 1 0.0 4.0 28 28
r 0.580334 2 4 udp 195 ------- 1 0.0 4.0 12 12
- 0.583214 2 4 udp 670 ------- 1 0.0 4.0 22 22
r 0.598374 2 4 udp 451 ------- 1 0.0 4.0 13 13
+ 0.60755 0 2 udp 1000 ------- 1 0.0 4.0 38 38
+ 0.60755 0 2 udp 709 ------- 1 0.0 4.0 39 39
+ 0.609394 0 2 udp 1000 ------- 1 0.0 4.0 40 40
+ 0.609394 0 2 udp 1000 ------- 1 0.0 4.0 41 41
+ 0.609394 0 2 udp 849 ------- 1 0.0 4.0 42 42
r 0.610014 0 2 udp 1000 ------- 1 0.0 4.0 23 23
+ 0.610014 2 4 udp 1000 ------- 1 0.0 4.0 23 23
- 0.610014 2 4 udp 1000 ------- 1 0.0 4.0 23 23
- 0.618694 0 2 udp 497 ------- 1 0.0 4.0 29 29
+ 0.633144 0 2 udp 64 ------- 1 0.0 4.0 43 43
r 0.634774 2 4 udp 837 ------- 1 0.0 4.0 14 14
+ 0.635672 0 2 udp 1000 ------- 1 0.0 4.0 44 44
+ 0.635672 0 2 udp 722 ------- 1 0.0 4.0 45 45
r 0.637094 2 4 udp 58 ------- 1 0.0 4.0 15 15
- 0.638574 0 2 udp 154 ------- 1 0.0 4.0 30 30
r 0.641854 0 2 udp 796 ------- 1 0.0 4.0 24 24
+ 0.641854 2 4 udp 796 ------- 1 0.0 4.0 24 24
- 0.644734 0 2 udp 103 ------- 1 0.0 4.0 31 31
r 0.646694 0 2 udp 121 ------- 1 0.0 4.0 25 25
+ 0.646694 2 4 udp 121 ------- 1 0.0 4.0 25 25
- 0.648854 0 2 udp 67 ------- 1 0.0 4.0 32 32
- 0.650014 2 4 udp 796 ------- 1 0.0 4.0 24 24
- 0.651534 0 2 udp 110 ------- 1 0.0 4.0 33 33
- 0.655934 0 2 udp 102 ------- 1 0.0 4.0 34 34
- 0.660014 0 2 udp 949 ------- 1 0.0 4.0 35 35
+ 0.670968 0 2 udp 118 ------- 1 0.0 4.0 46 46
r 0.678214 0 2 udp 788 ------- 1 0.0 4.0 26 26
+ 0.678214 2 4 udp 788 ------- 1 0.0 4.0 26 26
r 0.678694 0 2 udp 12 ------- 1 0.0 4.0 27 27
+ 0.678694 2 4 udp 12 ------- 1 0.0 4.0 27 27
+ 0.680679 0 2 udp 786 ------- 1 0.0 4.0 47 47
- 0.681854 2 4 udp 121 ------- 1 0.0 4.0 25 25
r 0.683614 2 4 udp 1000 ------- 1 0.0 4.0 16 16
- 0.686694 2 4 udp 788 ------- 1 0.0 4.0 26 26
+ 0.696593 0 2 udp 414 ------- 1 0.0 4.0 48 48
- 0.697974 0 2 udp 492 ------- 1 0.0 4.0 36 36
+ 0.713017 0 2 udp 53 ------- 1 0.0 4.0 49 49
- 0.717654 0 2 udp 551 ------- 1 0.0 4.0 37 37
- 0.718214 2 4 udp 12 ------- 1 0.0 4.0 27 27
r 0.718694 0 2 udp 1000 ------- 1 0.0 4.0 28 28
+ 0.718694 2 4 udp 1000 ------- 1 0.0 4.0 28 28
- 0.718694 2 4 udp 1000 ------- 1 0.0 4.0 28 28
r 0.723614 2 4 udp 1000 ------- 1 0.0 4.0 17 17
r 0.734174 2 4 udp 264 ------- 1 0.0 4.0 18 18
r 0.738574 0 2 udp 497 ------- 1 0.0 4.0 29 29
+ 0.738574 2 4 udp 497 ------- 1 0.0 4.0 29 29
- 0.739694 0 2 udp 1000 ------- 1 0.0 4.0 38 38
r 0.744734 0 2 udp 154 ------- 1 0.0 4.0 30 30
+ 0.744734 2 4 udp 154 ------- 1 0.0 4.0 30 30
r 0.748854 0 2 udp 103 ------- 1 0.0 4.0 31 31
+ 0.748854 2 4 udp 103 ------- 1 0.0 4.0 31 31
r 0.751534 0 2 udp 67 ------- 1 0.0 4.0 32 32
+ 0.751534 2 4 udp 67 ------- 1 0.0 4.0 32 32
+ 0.75556 0 2 udp 430 ------- 1 0.0 4.0 50 50
r 0.755934 0 2 udp 110 ------- 1 0.0 4.0 33 33
+ 0.755934 2 4 udp 110 ------- 1 0.0 4.0 33 33
- 0.758694 2 4 udp 497 ------- 1 0.0 4.0 29 29
r 0.760014 0 2 udp 102 ------- 1 0.0 4.0 34 34
+ 0.760014 2 4 udp 102 ------- 1 0.0 4.0 34 34
+ 0.77242 0 2 udp 362 ------- 1 0.0 4.0 51 51
r 0.774174 2 4 udp 1000 ------- 1 0.0 4.0 19 19
r 0.776054 2 4 udp 47 ------- 1 0.0 4.0 20 20
+ 0.77856 0 2 udp 81 ------- 1 0.0 4.0 52 52
- 0.778574 2 4 udp 154 ------- 1 0.0 4.0 30 30
- 0.779694 0 2 udp 709 ------- 1 0.0 4.0 39 39
r 0.783214 2 4 udp 179 ------- 1 0.0 4.0 21 21
- 0.784734 2 4 udp 103 ------- 1 0.0 4.0 31 31
+ 0.788028 0 2 udp 1000 ------- 1 0.0 4.0 53 53
+ 0.788028 0 2 udp 371 ------- 1 0.0 4.0 54 54
- 0.788854 2 4 udp 67 ------- 1 0.0 4.0 32 32
- 0.791534 2 4 udp 110 ------- 1 0.0 4.0 33 33
- 0.795934 2 4 udp 102 ------- 1 0.0 4.0 34 34
r 0.797974 0 2 udp 949 ------- 1 0.0 4.0 35 35
+ 0.797974 2 4 udp 949 ------- 1 0.0 4.0 35 35
- 0.800014 2 4 udp 949 ------- 1 0.0 4.0 35 35
- 0.808054 0 2 udp 1000 ------- 1 0.0 4.0 40 40
r 0.810014 2 4 udp 670 ------- 1 0.0 4.0 22 22
+ 0.816945 0 2 udp 1000 ------- 1 0.0 4.0 55 55
+ 0.816945 0 2 udp 616 ------- 1 0.0 4.0 56 56
r 0.817654 0 2 udp 492 ------- 1 0.0 4.0 36 36
+ 0.817654 2 4 udp 492 ------- 1 0.0 4.0 36 36
+ 0.8197 0 2 udp 742 ------- 1 0.0 4.0 57 57
+ 0.826656 0 2 udp 539 ------- 1 0.0 4.0 58 58
- 0.837974 2 4 udp 492 ------- 1 0.0 4.0 36 36
r 0.839694 0 2 udp 551 ------- 1 0.0 4.0 37 37
+ 0.839694 2 4 udp 551 ------- 1 0.0 4.0 37 37
- 0.848054 0 2 udp 1000 ------- 1 0.0 4.0 41 41
r 0.850014 2 4 udp 1000 ------- 1 0.0 4.0 23 23
- 0.857654 2 4 udp 551 ------- 1 0.0 4.0 37 37
r 0.879694 0 2 udp 1000 ------- 1 0.0 4.0 38 38
+ 0.879694 2 4 udp 1000 ------- 1 0.0 4.0 38 38
- 0.879694 2 4 udp 1000 ------- 1 0.0 4.0 38 38
r 0.881854 2 4 udp 796 ------- 1 0.0 4.0 24 24
+ 0.883363 0 2 udp 418 ------- 1 0.0 4.0 59 59
r 0.886694 2 4 udp 121 ------- 1 0.0 4.0 25 25
- 0.888054 0 2 udp 849 ------- 1 0.0 4.0 42 42
+ 0.892381 0 2 udp 31 ------- 1 0.0 4.0 60 60
r 0.908054 0 2 udp 709 ------- 1 0.0 4.0 39 39
+ 0.908054 2 4 udp 709 ------- 1 0.0 4.0 39 39
+ 0.908717 0 2 udp 22 ------- 1 0.0 4.0 61 61
+ 0.910792 0 2 udp 28 ------- 1 0.0 4.0 62 62
d 0.910792 0 2 udp 28 ------- 1 0.0 4.0 62 62
r 0.918214 2 4 udp 788 ------- 1 0.0 4.0 26 26
r 0.918694 2 4 udp 12 ------- 1 0.0 4.0 27 27
- 0.919694 2 4 udp 709 ------- 1 0.0 4.0 39 39
- 0.922014 0 2 udp 64 ------- 1 0.0 4.0 43 43
- 0.924574 0 2 udp 1000 ------- 1 0.0 4.0 44 44
r 0.948054 0 2 udp 1000 ------- 1 0.0 4.0 40 40
+ 0.948054 2 4 udp 1000 ------- 1 0.0 4.0 40 40
- 0.948054 2 4 udp 1000 ------- 1 0.0 4.0 40 40
+ 0.948497 0 2 udp 1000 ------- 1 0.0 4.0 63 63
+ 0.948497 0 2 udp 355 ------- 1 0.0 4.0 64 64
r 0.958694 2 4 udp 1000 ------- 1 0.0 4.0 28 28
+ 0.960993 0 2 udp 63 ------- 1 0.0 4.0 65 65
d 0.960993 0 2 udp 63 ------- 1 0.0 4.0 65 65
- 0.964574 0 2 udp 722 ------- 1 0.0 4.0 45 45
+ 0.974148 0 2 udp 367 ------- 1 0.0 4.0 66 66
r 0.978574 2 4 udp 497 ------- 1 0.0 4.0 29 29
r 0.984734 2 4 udp 154 ------- 1 0.0 4.0 30 30
r 0.988054 0 2 udp 1000 ------- 1 0.0 4.0 41 41
+ 0.988054 2 4 udp 1000 ------- 1 0.0 4.0 41 41
- 0.988054 2 4 udp 1000 ------- 1 0.0 4.0 41 41
r 0.988854 2 4 udp 103 ------- 1 0.0 4.0 31 31
r 0.991534 2 4 udp 67 ------- 1 0.0 4.0 32 32
- 0.993454 0 2 udp 118 ------- 1 0.0 4.0 46 46
r 0.995934 2 4 udp 110 ------- 1 0.0 4.0 33 33
- 0.998174 0 2 udp 786 ------- 1 0.0 4.0 47 47
r 1.000014 2 4 udp 102 ------- 1 0.0 4.0 34 34
+ 1.00087 0 2 udp 196 ------- 1 0.0 4.0 67 67
r 1.022014 0 2 udp 849 ------- 1 0.0 4.0 42 42
+ 1.022014 2 4 udp 849 ------- 1 0.0 4.0 42 42
r 1.024574 0 2 udp 64 ------- 1 0.0 4.0 43 43
+ 1.024574 2 4 udp 64 ------- 1 0.0 4.0 43 43
- 1.028054 2 4 udp 849 ------- 1 0.0 4.0 42 42
- 1.029614 0 2 udp 414 ------- 1 0.0 4.0 48 48
+ 1.032479 0 2 udp 664 ------- 1 0.0 4.0 68 68
r 1.037974 2 4 udp 949 ------- 1 0.0 4.0 35 35
- 1.046174 0 2 udp 53 ------- 1 0.0 4.0 49 49
- 1.048294 0 2 udp 430 ------- 1 0.0 4.0 50 50
r 1.057654 2 4 udp 492 ------- 1 0.0 4.0 36 36
- 1.062014 2 4 udp 64 ------- 1 0.0 4.0 43 43
r 1.064574 0 2 udp 1000 ------- 1 0.0 4.0 44 44
+ 1.064574 2 4 udp 1000 ------- 1 0.0 4.0 44 44
- 1.064574 2 4 udp 1000 ------- 1 0.0 4.0 44 44
- 1.065494 0 2 udp 362 ------- 1 0.0 4.0 51 51
+ 1.0689 0 2 udp 211 ------- 1 0.0 4.0 69 69
+ 1.07873 0 2 udp 897 ------- 1 0.0 4.0 70 70
r 1.079694 2 4 udp 551 ------- 1 0.0 4.0 37 37
- 1.079974 0 2 udp 81 ------- 1 0.0 4.0 52 52
- 1.083214 0 2 udp 1000 ------- 1 0.0 4.0 53 53
r 1.093454 0 2 udp 722 ------- 1 0.0 4.0 45 45
+ 1.093454 2 4 udp 722 ------- 1 0.0 4.0 45 45
r 1.098174 0 2 udp 118 ------- 1 0.0 4.0 46 46
+ 1.098174 2 4 udp 118 ------- 1 0.0 4.0 46 46
+ 1.104158 0 2 udp 1000 ------- 1 0.0 4.0 71 71
+ 1.104158 0 2 udp 279 ------- 1 0.0 4.0 72 72
- 1.104574 2 4 udp 722 ------- 1 0.0 4.0 45 45
r 1.119694 2 4 udp 1000 ------- 1 0.0 4.0 38 38
- 1.123214 0 2 udp 371 ------- 1 0.0 4.0 54 54
r 1.129614 0 2 udp 786 ------- 1 0.0 4.0 47 47
+ 1.129614 2 4 udp 786 ------- 1 0.0 4.0 47 47
- 1.133454 2 4 udp 118 ------- 1 0.0 4.0 46 46
- 1.138054 0 2 udp 1000 ------- 1 0.0 4.0 55 55
- 1.138174 2 4 udp 786 ------- 1 0.0 4.0 47 47
r 1.146174 0 2 udp 414 ------- 1 0.0 4.0 48 48
+ 1.146174 2 4 udp 414 ------- 1 0.0 4.0 48 48
r 1.148054 2 4 udp 709 ------- 1 0.0 4.0 39 39
r 1.148294 0 2 udp 53 ------- 1 0.0 4.0 49 49
+ 1.148294 2 4 udp 53 ------- 1 0.0 4.0 49 49
r 1.165494 0 2 udp 430 ------- 1 0.0 4.0 50 50
+ 1.165494 2 4 udp 430 ------- 1 0.0 4.0 50 50
+ 1.167764 0 2 udp 512 ------- 1 0.0 4.0 73 73
- 1.169614 2 4 udp 414 ------- 1 0.0 4.0 48 48
- 1.178054 0 2 udp 616 ------- 1 0.0 4.0 56 56
r 1.179974 0 2 udp 362 ------- 1 0.0 4.0 51 51
+ 1.179974 2 4 udp 362 ------- 1 0.0 4.0 51 51
r 1.183214 0 2 udp 81 ------- 1 0.0 4.0 52 52
+ 1.183214 2 4 udp 81 ------- 1 0.0 4.0 52 52
- 1.186174 2 4 udp 53 ------- 1 0.0 4.0 49 49
r 1.188054 2 4 udp 1000 ------- 1 0.0 4.0 40 40
- 1.188294 2 4 udp 430 ------- 1 0.0 4.0 50 50
- 1.202694 0 2 udp 742 ------- 1 0.0 4.0 57 57
- 1.205494 2 4 udp 362 ------- 1 0.0 4.0 51 51
- 1.219974 2 4 udp 81 ------- 1 0.0 4.0 52 52
r 1.223214 0 2 udp 1000 ------- 1 0.0 4.0 53 53
+ 1.223214 2 4 udp 1000 ------- 1 0.0 4.0 53 53
- 1.223214 2 4 udp 1000 ------- 1 0.0 4.0 53 53
+ 1.226171 0 2 udp 24 ------- 1 0.0 4.0 74 74
r 1.228054 2 4 udp 1000 ------- 1 0.0 4.0 41 41
- 1.232374 0 2 udp 539 ------- 1 0.0 4.0 58 58
r 1.238054 0 2 udp 371 ------- 1 0.0 4.0 54 54
+ 1.238054 2 4 udp 371 ------- 1 0.0 4.0 54 54
- 1.253934 0 2 udp 418 ------- 1 0.0 4.0 59 59
r 1.262014 2 4 udp 849 ------- 1 0.0 4.0 42 42
- 1.263214 2 4 udp 371 ------- 1 0.0 4.0 54 54
r 1.264574 2 4 udp 64 ------- 1 0.0 4.0 43 43
- 1.270654 0 2 udp 31 ------- 1 0.0 4.0 60 60
- 1.271894 0 2 udp 22 ------- 1 0.0 4.0 61 61
- 1.272774 0 2 udp 1000 ------- 1 0.0 4.0 63 63
r 1.278054 0 2 udp 1000 ------- 1 0.0 4.0 55 55
+ 1.278054 2 4 udp 1000 ------- 1 0.0 4.0 55 55
- 1.278054 2 4 udp 1000 ------- 1 0.0 4.0 55 55
+ 1.284054 0 2 udp 422 ------- 1 0.0 4.0 75 75
+ 1.29095 0 2 udp 305 ------- 1 0.0 4.0 76 76
r 1.302694 0 2 udp 616 ------- 1 0.0 4.0 56 56
+ 1.302694 2 4 udp 616 ------- 1 0.0 4.0 56 56
r 1.304574 2 4 udp 1000 ------- 1 0.0 4.0 44 44
+ 1.309638 0 2 udp 437 ------- 1 0.0 4.0 77 77
- 1.312774 0 2 udp 355 ------- 1 0.0 4.0 64 64
- 1.318054 2 4 udp 616 ------- 1 0.0 4.0 56 56
+ 1.320525 0 2 udp 77 ------- 1 0.0 4.0 78 78
+ 1.324841 0 2 udp 1000 ------- 1 0.0 4.0 79 79
+ 1.324841 0 2 udp 288 ------- 1 0.0 4.0 80 80
- 1.326974 0 2 udp 367 ------- 1 0.0 4.0 66 66
+ 1.329463 0 2 udp 370 ------- 1 0.0 4.0 81 81
r 1.332374 0 2 udp 742 ------- 1 0.0 4.0 57 57
+ 1.332374 2 4 udp 742 ------- 1 0.0 4.0 57 57
+ 1.332991 0 2 udp 1000 ------- 1 0.0 4.0 82 82
+ 1.332991 0 2 udp 958 ------- 1 0.0 4.0 83 83
r 1.333454 2 4 udp 722 ------- 1 0.0 4.0 45 45
r 1.338174 2 4 udp 118 ------- 1 0.0 4.0 46 46
- 1.341654 0 2 udp 196 ------- 1 0.0 4.0 67 67
- 1.342694 2 4 udp 742 ------- 1 0.0 4.0 57 57
- 1.349494 0 2 udp 664 ------- 1 0.0 4.0 68 68
r 1.353934 0 2 udp 539 ------- 1 0.0 4.0 58 58
+ 1.353934 2 4 udp 539 ------- 1 0.0 4.0 58 58
+ 1.359196 0 2 udp 359 ------- 1 0.0 4.0 84 84
r 1.369614 2 4 udp 786 ------- 1 0.0 4.0 47 47
r 1.370654 0 2 udp 418 ------- 1 0.0 4.0 59 59
+ 1.370654 2 4 udp 418 ------- 1 0.0 4.0 59 59
r 1.371894 0 2 udp 31 ------- 1 0.0 4.0 60 60
+ 1.371894 2 4 udp 31 ------- 1 0.0 4.0 60 60
- 1.372374 2 4 udp 539 ------- 1 0.0 4.0 58 58
r 1.372774 0 2 udp 22 ------- 1 0.0 4.0 61 61
+ 1.372774 2 4 udp 22 ------- 1 0.0 4.0 61 61
+ 1.375988 0 2 udp 186 ------- 1 0.0 4.0 85 85
- 1.376054 0 2 udp 211 ------- 1 0.0 4.0 69 69
- 1.384494 0 2 udp 897 ------- 1 0.0 4.0 70 70
r 1.386174 2 4 udp 414 ------- 1 0.0 4.0 48 48
r 1.388294 2 4 udp 53 ------- 1 0.0 4.0 49 49
- 1.393934 2 4 udp 418 ------- 1 0.0 4.0 59 59
r 1.405494 2 4 udp 430 ------- 1 0.0 4.0 50 50
- 1.410654 2 4 udp 31 ------- 1 0.0 4.0 60 60
- 1.411894 2 4 udp 22 ------- 1 0.0 4.0 61 61
r 1.412774 0 2 udp 1000 ------- 1 0.0 4.0 63 63
+ 1.412774 2 4 udp 1000 ------- 1 0.0 4.0 63 63
- 1.412774 2 4 udp 1000 ------- 1 0.0 4.0 63 63
r 1.419974 2 4 udp 362 ------- 1 0.0 4.0 51 51
- 1.420374 0 2 udp 1000 ------- 1 0.0 4.0 71 71
r 1.423214 2 4 udp 81 ------- 1 0.0 4.0 52 52
r 1.426974 0 2 udp 355 ------- 1 0.0 4.0 64 64
+ 1.426974 2 4 udp 355 ------- 1 0.0 4.0 64 64
r 1.441654 0 2 udp 367 ------- 1 0.0 4.0 66 66
+ 1.441654 2 4 udp 367 ------- 1 0.0 4.0 66 66
r 1.449494 0 2 udp 196 ------- 1 0.0 4.0 67 67
+ 1.449494 2 4 udp 196 ------- 1 0.0 4.0 67 67
- 1.452774 2 4 udp 355 ------- 1 0.0 4.0 64 64
- 1.460374 0 2 udp 279 ------- 1 0.0 4.0 72 72
r 1.463214 2 4 udp 1000 ------- 1 0.0 4.0 53 53
- 1.466974 2 4 udp 367 ------- 1 0.0 4.0 66 66
- 1.471534 0 2 udp 512 ------- 1 0.0 4.0 73 73
+ 1.472718 0 2 udp 54 ------- 1 0.0 4.0 86 86
r 1.476054 0 2 udp 664 ------- 1 0.0 4.0 68 68
+ 1.476054 2 4 udp 664 ------- 1 0.0 4.0 68 68
r 1.478054 2 4 udp 371 ------- 1 0.0 4.0 54 54
- 1.481654 2 4 udp 196 ------- 1 0.0 4.0 67 67
r 1.484494 0 2 udp 211 ------- 1 0.0 4.0 69 69
+ 1.484494 2 4 udp 211 ------- 1 0.0 4.0 69 69
+ 1.487855 0 2 udp 1000 ------- 1 0.0 4.0 87 87
+ 1.487855 0 2 udp 612 ------- 1 0.0 4.0 88 88
- 1.489494 2 4 udp 664 ------- 1 0.0 4.0 68 68
- 1.492014 0 2 udp 24 ------- 1 0.0 4.0 74 74
- 1.492974 0 2 udp 422 ------- 1 0.0 4.0 75 75
+ 1.502637 0 2 udp 341 ------- 1 0.0 4.0 89 89
- 1.509854 0 2 udp 305 ------- 1 0.0 4.0 76 76
- 1.516054 2 4 udp 211 ------- 1 0.0 4.0 69 69
r 1.518054 2 4 udp 1000 ------- 1 0.0 4.0 55 55
+ 1.519394 0 2 udp 643 ------- 1 0.0 4.0 90 90
r 1.520374 0 2 udp 897 ------- 1 0.0 4.0 70 70
+ 1.520374 2 4 udp 897 ------- 1 0.0 4.0 70 70
- 1.522054 0 2 udp 437 ------- 1 0.0 4.0 77 77
- 1.524494 2 4 udp 897 ------- 1 0.0 4.0 70 70
+ 1.538158 0 2 udp 1000 ------- 1 0.0 4.0 91 91
+ 1.538158 0 2 udp 669 ------- 1 0.0 4.0 92 92
+ 1.53922 0 2 udp 405 ------- 1 0.0 4.0 93 93
- 1.539534 0 2 udp 77 ------- 1 0.0 4.0 78 78
- 1.542614 0 2 udp 1000 ------- 1 0.0 4.0 79 79
r 1.542694 2 4 udp 616 ------- 1 0.0 4.0 56 56
r 1.560374 0 2 udp 1000 ------- 1 0.0 4.0 71 71
+ 1.560374 2 4 udp 1000 ------- 1 0.0 4.0 71 71
- 1.560374 2 4 udp 1000 ------- 1 0.0 4.0 71 71
r 1.571534 0 2 udp 279 ------- 1 0.0 4.0 72 72
+ 1.571534 2 4 udp 279 ------- 1 0.0 4.0 72 72
r 1.572374 2 4 udp 742 ------- 1 0.0 4.0 57 57
+ 1.577202 0 2 udp 1000 ------- 1 0.0 4.0 94 94
+ 1.577202 0 2 udp 447 ------- 1 0.0 4.0 95 95
- 1.582614 0 2 udp 288 ------- 1 0.0 4.0 80 80
r 1.592014 0 2 udp 512 ------- 1 0.0 4.0 73 73
+ 1.592014 2 4 udp 512 ------- 1 0.0 4.0 73 73
r 1.592974 0 2 udp 24 ------- 1 0.0 4.0 74 74
+ 1.592974 2 4 udp 24 ------- 1 0.0 4.0 74 74
r 1.593934 2 4 udp 539 ------- 1 0.0 4.0 58 58
- 1.594134 0 2 udp 370 ------- 1 0.0 4.0 81 81
- 1.600374 2 4 udp 279 ------- 1 0.0 4.0 72 72
- 1.608934 0 2 udp 1000 ------- 1 0.0 4.0 82 82
r 1.609854 0 2 udp 422 ------- 1 0.0 4.0 75 75
+ 1.609854 2 4 udp 422 ------- 1 0.0 4.0 75 75
r 1.610654 2 4 udp 418 ------- 1 0.0 4.0 59 59
- 1.611534 2 4 udp 512 ------- 1 0.0 4.0 73 73
r 1.611894 2 4 udp 31 ------- 1 0.0 4.0 60 60
r 1.612774 2 4 udp 22 ------- 1 0.0 4.0 61 61
+ 1.617944 0 2 udp 553 ------- 1 0.0 4.0 96 96
r 1.622054 0 2 udp 305 ------- 1 0.0 4.0 76 76
+ 1.622054 2 4 udp 305 ------- 1 0.0 4.0 76 76
- 1.632014 2 4 udp 24 ------- 1 0.0 4.0 74 74
- 1.632974 2 4 udp 422 ------- 1 0.0 4.0 75 75
r 1.639534 0 2 udp 437 ------- 1 0.0 4.0 77 77
+ 1.639534 2 4 udp 437 ------- 1 0.0 4.0 77 77
+ 1.641668 0 2 udp 126 ------- 1 0.0 4.0 97 97
r 1.642614 0 2 udp 77 ------- 1 0.0 4.0 78 78
+ 1.642614 2 4 udp 77 ------- 1 0.0 4.0 78 78
- 1.648934 0 2 udp 958 ------- 1 0.0 4.0 83 83
- 1.649854 2 4 udp 305 ------- 1 0.0 4.0 76 76
r 1.652774 2 4 udp 1000 ------- 1 0.0 4.0 63 63
+ 1.661346 0 2 udp 86 ------- 1 0.0 4.0 98 98
- 1.662054 2 4 udp 437 ------- 1 0.0 4.0 77 77
r 1.666974 2 4 udp 355 ------- 1 0.0 4.0 64 64
+ 1.673538 0 2 udp 327 ------- 1 0.0 4.0 99 99
- 1.679534 2 4 udp 77 ------- 1 0.0 4.0 78 78
r 1.681654 2 4 udp 367 ------- 1 0.0 4.0 66 66
r 1.682614 0 2 udp 1000 ------- 1 0.0 4.0 79 79
+ 1.682614 2 4 udp 1000 ------- 1 0.0 4.0 79 79
- 1.682614 2 4 udp 1000 ------- 1 0.0 4.0 79 79
- 1.687254 0 2 udp 359 ------- 1 0.0 4.0 84 84
+ 1.689013 0 2 udp 40 ------- 1 0.0 4.0 100 100
r 1.689494 2 4 udp 196 ------- 1 0.0 4.0 67 67
r 1.694134 0 2 udp 288 ------- 1 0.0 4.0 80 80
+ 1.694134 2 4 udp 288 ------- 1 0.0 4.0 80 80
+ 1.699885 0 2 udp 581 ------- 1 0.0 4.0 101 101
- 1.701614 0 2 udp 186 ------- 1 0.0 4.0 85 85
r 1.708934 0 2 udp 370 ------- 1 0.0 4.0 81 81
+ 1.708934 2 4 udp 370 ------- 1 0.0 4.0 81 81
- 1.709054 0 2 udp 54 ------- 1 0.0 4.0 86 86
- 1.711214 0 2 udp 1000 ------- 1 0.0 4.0 87 87
r 1.716054 2 4 udp 664 ------- 1 0.0 4.0 68 68
- 1.722614 2 4 udp 288 ------- 1 0.0 4.0 80 80
r 1.724494 2 4 udp 211 ------- 1 0.0 4.0 69 69
- 1.734134 2 4 udp 370 ------- 1 0.0 4.0 81 81
r 1.748934 0 2 udp 1000 ------- 1 0.0 4.0 82 82
+ 1.748934 2 4 udp 1000 ------- 1 0.0 4.0 82 82
- 1.748934 2 4 udp 1000 ------- 1 0.0 4.0 82 82
- 1.751214 0 2 udp 612 ------- 1 0.0 4.0 88 88
+ 1.754517 0 2 udp 6 ------- 1 0.0 4.0 102 102
r 1.760374 2 4 udp 897 ------- 1 0.0 4.0 70 70
+ 1.76949 0 2 udp 75 ------- 1 0.0 4.0 103 103
- 1.775694 0 2 udp 341 ------- 1 0.0 4.0 89 89
r 1.787254 0 2 udp 958 ------- 1 0.0 4.0 83 83
+ 1.787254 2 4 udp 958 ------- 1 0.0 4.0 83 83
- 1.788934 2 4 udp 958 ------- 1 0.0 4.0 83 83
- 1.789334 0 2 udp 643 ------- 1 0.0 4.0 90 90
+ 1.797313 0 2 udp 556 ------- 1 0.0 4.0 104 104
+ 1.79936 0 2 udp 402 ------- 1 0.0 4.0 105 105
r 1.800374 2 4 udp 1000 ------- 1 0.0 4.0 71 71
r 1.801614 0 2 udp 359 ------- 1 0.0 4.0 84 84
+ 1.801614 2 4 udp 359 ------- 1 0.0 4.0 84 84
+ 1.804621 0 2 udp 657 ------- 1 0.0 4.0 106 106
r 1.809054 0 2 udp 186 ------- 1 0.0 4.0 85 85
+ 1.809054 2 4 udp 186 ------- 1 0.0 4.0 85 85
r 1.811214 0 2 udp 54 ------- 1 0.0 4.0 86 86
+ 1.811214 2 4 udp 54 ------- 1 0.0 4.0 86 86
r 1.811534 2 4 udp 279 ------- 1 0.0 4.0 72 72
- 1.815054 0 2 udp 1000 ------- 1 0.0 4.0 91 91
- 1.827254 2 4 udp 359 ------- 1 0.0 4.0 84 84
r 1.832014 2 4 udp 512 ------- 1 0.0 4.0 73 73
r 1.832974 2 4 udp 24 ------- 1 0.0 4.0 74 74
- 1.841614 2 4 udp 186 ------- 1 0.0 4.0 85 85
- 1.849054 2 4 udp 54 ------- 1 0.0 4.0 86 86
r 1.849854 2 4 udp 422 ------- 1 0.0 4.0 75 75
r 1.851214 0 2 udp 1000 ------- 1 0.0 4.0 87 87
+ 1.851214 2 4 udp 1000 ------- 1 0.0 4.0 87 87
- 1.851214 2 4 udp 1000 ------- 1 0.0 4.0 87 87
- 1.855054 0 2 udp 669 ------- 1 0.0 4.0 92 92
+ 1.857575 0 2 udp 266 ------- 1 0.0 4.0 107 107
r 1.862054 2 4 udp 305 ------- 1 0.0 4.0 76 76
+ 1.873711 0 2 udp 691 ------- 1 0.0 4.0 108 108
r 1.875694 0 2 udp 612 ------- 1 0.0 4.0 88 88
+ 1.875694 2 4 udp 612 ------- 1 0.0 4.0 88 88
r 1.879534 2 4 udp 437 ------- 1 0.0 4.0 77 77
- 1.881814 0 2 udp 405 ------- 1 0.0 4.0 93 93
r 1.882614 2 4 udp 77 ------- 1 0.0 4.0 78 78
+ 1.884787 0 2 udp 354 ------- 1 0.0 4.0 109 109
r 1.889334 0 2 udp 341 ------- 1 0.0 4.0 89 89
+ 1.889334 2 4 udp 341 ------- 1 0.0 4.0 89 89
- 1.891214 2 4 udp 612 ------- 1 0.0 4.0 88 88
- 1.898014 0 2 udp 1000 ------- 1 0.0 4.0 94 94
r 1.915054 0 2 udp 643 ------- 1 0.0 4.0 90 90
+ 1.915054 2 4 udp 643 ------- 1 0.0 4.0 90 90
- 1.915694 2 4 udp 341 ------- 1 0.0 4.0 89 89
r 1.922614 2 4 udp 1000 ------- 1 0.0 4.0 79 79
- 1.929334 2 4 udp 643 ------- 1 0.0 4.0 90 90
r 1.934134 2 4 udp 288 ------- 1 0.0 4.0 80 80
- 1.938014 0 2 udp 447 ------- 1 0.0 4.0 95 95
+ 1.939271 0 2 udp 357 ------- 1 0.0 4.0 110 110
+ 1.942857 0 2 udp 255 ------- 1 0.0 4.0 111 111
r 1.948934 2 4 udp 370 ------- 1 0.0 4.0 81 81
r 1.955054 0 2 udp 1000 ------- 1 0.0 4.0 91 91
+ 1.955054 2 4 udp 1000 ------- 1 0.0 4.0 91 91
- 1.955054 2 4 udp 1000 ------- 1 0.0 4.0 91 91
- 1.955894 0 2 udp 553 ------- 1 0.0 4.0 96 96
+ 1.961244 0 2 udp 416 ------- 1 0.0 4.0 112 112
+ 1.964451 0 2 udp 568 ------- 1 0.0 4.0 113 113
- 1.978014 0 2 udp 126 ------- 1 0.0 4.0 97 97
r 1.981814 0 2 udp 669 ------- 1 0.0 4.0 92 92
+ 1.981814 2 4 udp 669 ------- 1 0.0 4.0 92 92
- 1.983054 0 2 udp 86 ------- 1 0.0 4.0 98 98
- 1.986494 0 2 udp 327 ------- 1 0.0 4.0 99 99
r 1.988934 2 4 udp 1000 ------- 1 0.0 4.0 82 82
- 1.995054 2 4 udp 669 ------- 1 0.0 4.0 92 92
r 1.998014 0 2 udp 405 ------- 1 0.0 4.0 93 93
+ 1.998014 2 4 udp 405 ------- 1 0.0 4.0 93 93
- 1.999574 0 2 udp 40 ------- 1 0.0 4.0 100 100
+ 2.0001 1 2 udp 512 ------- 2 1.0 4.1 0 114
- 2.0001 1 2 udp 512 ------- 2 1.0 4.1 0 114
- 2.001174 0 2 udp 581 ------- 1 0.0 4.0 101 101
+ 2.005406 0 2 udp 1000 ------- 1 0.0 4.0 114 115
+ 2.005406 0 2 udp 161 ------- 1 0.0 4.0 115 116
+ 2.015234 1 2 udp 512 ------- 2 1.0 4.1 1 117
- 2.015234 1 2 udp 512 ------- 2 1.0 4.1 1 117
- 2.021814 2 4 udp 405 ------- 1 0.0 4.0 93 93
- 2.024414 0 2 udp 6 ------- 1 0.0 4.0 102 102
- 2.024654 0 2 udp 75 ------- 1 0.0 4.0 103 103
+ 2.02517 0 2 udp 407 ------- 1 0.0 4.0 116 118
r 2.027254 2 4 udp 958 ------- 1 0.0 4.0 83 83
- 2.027654 0 2 udp 556 ------- 1 0.0 4.0 104 104
+ 2.030093 1 2 udp 512 ------- 2 1.0 4.1 2 119
- 2.030093 1 2 udp 512 ------- 2 1.0 4.1 2 119
r 2.038014 0 2 udp 1000 ------- 1 0.0 4.0 94 94
+ 2.038014 2 4 udp 1000 ------- 1 0.0 4.0 94 94
- 2.038014 2 4 udp 1000 ------- 1 0.0 4.0 94 94
+ 2.04115 1 2 udp 512 ------- 2 1.0 4.1 3 120
- 2.04115 1 2 udp 512 ------- 2 1.0 4.1 3 120
r 2.041614 2 4 udp 359 ------- 1 0.0 4.0 84 84
+ 2.04276 1 2 udp 512 ------- 2 1.0 4.1 4 121
r 2.049054 2 4 udp 186 ------- 1 0.0 4.0 85 85
- 2.049342 1 2 udp 512 ------- 2 1.0 4.1 4 121
- 2.049894 0 2 udp 402 ------- 1 0.0 4.0 105 105
r 2.051214 2 4 udp 54 ------- 1 0.0 4.0 86 86
r 2.055894 0 2 udp 447 ------- 1 0.0 4.0 95 95
+ 2.055894 2 4 udp 447 ------- 1 0.0 4.0 95 95
+ 2.060622 1 2 udp 512 ------- 2 1.0 4.1 5 122
- 2.060622 1 2 udp 512 ------- 2 1.0 4.1 5 122
- 2.065974 0 2 udp 657 ------- 1 0.0 4.0 106 106
+ 2.066411 1 2 udp 512 ------- 2 1.0 4.1 6 123
+ 2.066689 1 2 udp 512 ------- 2 1.0 4.1 7 124
- 2.068814 1 2 udp 512 ------- 2 1.0 4.1 6 123
+ 2.071223 1 2 udp 512 ------- 2 1.0 4.1 8 125
+ 2.07658 0 2 udp 52 ------- 1 0.0 4.0 117 126
- 2.077006 1 2 udp 512 ------- 2 1.0 4.1 7 124
r 2.078014 0 2 udp 553 ------- 1 0.0 4.0 96 96
+ 2.078014 2 4 udp 553 ------- 1 0.0 4.0 96 96
- 2.078014 2 4 udp 447 ------- 1 0.0 4.0 95 95
+ 2.078612 0 2 udp 1000 ------- 1 0.0 4.0 118 127
+ 2.078612 0 2 udp 230 ------- 1 0.0 4.0 119 128
r 2.083054 0 2 udp 126 ------- 1 0.0 4.0 97 97
+ 2.083054 2 4 udp 126 ------- 1 0.0 4.0 97 97
+ 2.085149 1 2 udp 512 ------- 2 1.0 4.1 9 129
- 2.085198 1 2 udp 512 ------- 2 1.0 4.1 8 125
r 2.086494 0 2 udp 86 ------- 1 0.0 4.0 98 98
+ 2.086494 2 4 udp 86 ------- 1 0.0 4.0 98 98
r 2.091214 2 4 udp 1000 ------- 1 0.0 4.0 87 87
- 2.092254 0 2 udp 266 ------- 1 0.0 4.0 107 107
- 2.09339 1 2 udp 512 ------- 2 1.0 4.1 9 129
+ 2.09412 0 2 udp 260 ------- 1 0.0 4.0 120 130
- 2.095894 2 4 udp 553 ------- 1 0.0 4.0 96 96
+ 2.096356 1 2 udp 512 ------- 2 1.0 4.1 10 131
r 2.099574 0 2 udp 327 ------- 1 0.0 4.0 99 99
+ 2.099574 2 4 udp 327 ------- 1 0.0 4.0 99 99
r 2.101174 0 2 udp 40 ------- 1 0.0 4.0 100 100
+ 2.101174 2 4 udp 40 ------- 1 0.0 4.0 100 100
- 2.101582 1 2 udp 512 ------- 2 1.0 4.1 10 131
- 2.102894 0 2 udp 691 ------- 1 0.0 4.0 108 108
r 2.108292 1 2 udp 512 ------- 2 1.0 4.1 0 114
+ 2.108292 2 4 udp 512 ------- 2 1.0 4.1 0 114
+ 2.108555 1 2 udp 512 ------- 2 1.0 4.1 11 132
- 2.109774 1 2 udp 512 ------- 2 1.0 4.1 11 132
r 2.115694 2 4 udp 612 ------- 1 0.0 4.0 88 88
+ 2.115961 1 2 udp 512 ------- 2 1.0 4.1 12 133
- 2.117966 1 2 udp 512 ------- 2 1.0 4.1 12 133
- 2.118014 2 4 udp 126 ------- 1 0.0 4.0 97 97
+ 2.119503 0 2 udp 642 ------- 1 0.0 4.0 121 134