V -t * -v 1.0a5 -a 0
A -t * -n 1 -p 0 -o 0x7fffffff -c 30 -a 1
A -t * -h 1 -m 1073741823 -s 0
c -t * -i 1 -n Blue
c -t * -i 2 -n Red
n -t * -a 4 -s 4 -S UP -v circle -c black -i black
n -t * -a 0 -s 0 -S UP -v circle -c black -i black
n -t * -a 5 -s 5 -S UP -v circle -c black -i black
n -t * -a 1 -s 1 -S UP -v circle -c black -i black
n -t * -a 2 -s 2 -S UP -v hexagon -c black -i black
n -t * -a 3 -s 3 -S UP -v square -c black -i black
l -t * -s 0 -d 2 -S UP -r 200000 -D 0.10000000000000001 -c black -o right-down
l -t * -s 1 -d 2 -S UP -r 500000 -D 0.10000000000000001 -c black -o right-up
l -t * -s 2 -d 3 -S UP -r 200000 -D 0.10000000000000001 -c black -o right
l -t * -s 2 -d 4 -S UP -r 200000 -D 0.20000000000000001 -c black -o right-up
l -t * -s 2 -d 5 -S UP -r 200000 -D 0.20000000000000001 -c black -o right-down
q -t * -s 2 -d 0 -a 0.5
q -t * -s 0 -d 2 -a 0.5
q -t * -s 2 -d 1 -a 0.5
q -t * -s 1 -d 2 -a 0.5
q -t * -s 2 -d 3 -a 0.5
n -t 0 -s 2 -S DLABEL -l "Victim_Client" -L ""
n -t 0 -s 3 -S DLABEL -l "Isp1" -L ""
n -t 0 -s 0 -S DLABEL -l "Attacker1" -L ""
n -t 0 -s 1 -S DLABEL -l "Attacker2" -L ""
n -t 0 -s 4 -S DLABEL -l "Isp2" -L ""
n -t 0 -s 5 -S DLABEL -l "Isp3" -L ""
+ -t 0.0001 -s 0 -d 2 -p udp -e 1000 -c 1 -i 0 -a 1 -x {0.0 4.0 0 ------- null}
- -t 0.0001 -s 0 -d 2 -p udp -e 1000 -c 1 -i 0 -a 1 -x {0.0 4.0 0 ------- null}
h -t 0.0001 -s 0 -d 2 -p udp -e 1000 -c 1 -i 0 -a 1 -x {0.0 4.0 -1 ------- null}
+ -t 0.0001 -s 0 -d 2 -p udp -e 1000 -c 1 -i 1 -a 1 -x {0.0 4.0 1 ------- null}
+ -t 0.0001 -s 0 -d 2 -p udp -e 127 -c 1 -i 2 -a 1 -x {0.0 4.0 2 ------- null}
+ -t 0.01184403 -s 0 -d 2 -p udp -e 112 -c 1 -i 3 -a 1 -x {0.0 4.0 3 ------- null}
+ -t 0.02821038 -s 0 -d 2 -p udp -e 725 -c 1 -i 4 -a 1 -x {0.0 4.0 4 ------- null}
+ -t 0.032265534 -s 0 -d 2 -p udp -e 89 -c 1 -i 5 -a 1 -x {0.0 4.0 5 ------- null}
- -t 0.0401 -s 0 -d 2 -p udp -e 1000 -c 1 -i 1 -a 1 -x {0.0 4.0 1 ------- null}
h -t 0.0401 -s 0 -d 2 -p udp -e 1000 -c 1 -i 1 -a 1 -x {0.0 4.0 -1 ------- null}
+ -t 0.055748694 -s 0 -d 2 -p udp -e 223 -c 1 -i 6 -a 1 -x {0.0 4.0 6 ------- null}
- -t 0.0801 -s 0 -d 2 -p udp -e 127 -c 1 -i 2 -a 1 -x {0.0 4.0 2 ------- null}
h -t 0.0801 -s 0 -d 2 -p udp -e 127 -c 1 -i 2 -a 1 -x {0.0 4.0 -1 ------- null}
- -t 0.08518 -s 0 -d 2 -p udp -e 112 -c 1 -i 3 -a 1 -x {0.0 4.0 3 ------- null}
h -t 0.08518 -s 0 -d 2 -p udp -e 112 -c 1 -i 3 -a 1 -x {0.0 4.0 -1 ------- null}
- -t 0.08966 -s 0 -d 2 -p udp -e 725 -c 1 -i 4 -a 1 -x {0.0 4.0 4 ------- null}
h -t 0.08966 -s 0 -d 2 -p udp -e 725 -c 1 -i 4 -a 1 -x {0.0 4.0 -1 ------- null}
- -t 0.11866 -s 0 -d 2 -p udp -e 89 -c 1 -i 5 -a 1 -x {0.0 4.0 5 ------- null}
h -t 0.11866 -s 0 -d 2 -p udp -e 89 -c 1 -i 5 -a 1 -x {0.0 4.0 -1 ------- null}
+ -t 0.118775584 -s 0 -d 2 -p udp -e 429 -c 1 -i 7 -a 1 -x {0.0 4.0 7 ------- null}
+ -t 0.121798375 -s 0 -d 2 -p udp -e 107 -c 1 -i 8 -a 1 -x {0.0 4.0 8 ------- null}
- -t 0.12222 -s 0 -d 2 -p udp -e 223 -c 1 -i 6 -a 1 -x {0.0 4.0 6 ------- null}
h -t 0.12222 -s 0 -d 2 -p udp -e 223 -c 1 -i 6 -a 1 -x {0.0 4.0 -1 ------- null}
- -t 0.13114 -s 0 -d 2 -p udp -e 429 -c 1 -i 7 -a 1 -x {0.0 4.0 7 ------- null}
h -t 0.13114 -s 0 -d 2 -p udp -e 429 -c 1 -i 7 -a 1 -x {0.0 4.0 -1 ------- null}
r -t 0.1401 -s 0 -d 2 -p udp -e 1000 -c 1 -i 0 -a 1 -x {0.0 4.0 0 ------- null}
+ -t 0.1401 -s 2 -d 4 -p udp -e 1000 -c 1 -i 0 -a 1 -x {0.0 4.0 0 ------- null}
- -t 0.1401 -s 2 -d 4 -p udp -e 1000 -c 1 -i 0 -a 1 -x {0.0 4.0 0 ------- null}
h -t 0.1401 -s 2 -d 4 -p udp -e 1000 -c 1 -i 0 -a 1 -x {0.0 4.0 -1 ------- null}
- -t 0.1483 -s 0 -d 2 -p udp -e 107 -c 1 -i 8 -a 1 -x {0.0 4.0 8 ------- null}
h -t 0.1483 -s 0 -d 2 -p udp -e 107 -c 1 -i 8 -a 1 -x {0.0 4.0 -1 ------- null}
+ -t 0.169058065 -s 0 -d 2 -p udp -e 447 -c 1 -i 9 -a 1 -x {0.0 4.0 9 ------- null}
- -t 0.169058065 -s 0 -d 2 -p udp -e 447 -c 1 -i 9 -a 1 -x {0.0 4.0 9 ------- null}
h -t 0.169058065 -s 0 -d 2 -p udp -e 447 -c 1 -i 9 -a 1 -x {0.0 4.0 -1 ------- null}
r -t 0.1801 -s 0 -d 2 -p udp -e 1000 -c 1 -i 1 -a 1 -x {0.0 4.0 1 ------- null}
+ -t 0.1801 -s 2 -d 4 -p udp -e 1000 -c 1 -i 1 -a 1 -x {0.0 4.0 1 ------- null}
- -t 0.1801 -s 2 -d 4 -p udp -e 1000 -c 1 -i 1 -a 1 -x {0.0 4.0 1 ------- null}
h -t 0.1801 -s 2 -d 4 -p udp -e 1000 -c 1 -i 1 -a 1 -x {0.0 4.0 -1 ------- null}
r -t 0.18518 -s 0 -d 2 -p udp -e 127 -c 1 -i 2 -a 1 -x {0.0 4.0 2 ------- null}
+ -t 0.18518 -s 2 -d 4 -p udp -e 127 -c 1 -i 2 -a 1 -x {0.0 4.0 2 ------- null}
r -t 0.18966 -s 0 -d 2 -p udp -e 112 -c 1 -i 3 -a 1 -x {0.0 4.0 3 ------- null}
+ -t 0.18966 -s 2 -d 4 -p udp -e 112 -c 1 -i 3 -a 1 -x {0.0 4.0 3 ------- null}
+ -t 0.196147165 -s 0 -d 2 -p udp -e 184 -c 1 -i 10 -a 1 -x {0.0 4.0 10 ------- null}
- -t 0.196147165 -s 0 -d 2 -p udp -e 184 -c 1 -i 10 -a 1 -x {0.0 4.0 10 ------- null}
h -t 0.196147165 -s 0 -d 2 -p udp -e 184 -c 1 -i 10 -a 1 -x {0.0 4.0 -1 ------- null}
+ -t 0.211413585 -s 0 -d 2 -p udp -e 764 -c 1 -i 11 -a 1 -x {0.0 4.0 11 ------- null}
- -t 0.211413585 -s 0 -d 2 -p udp -e 764 -c 1 -i 11 -a 1 -x {0.0 4.0 11 ------- null}
h -t 0.211413585 -s 0 -d 2 -p udp -e 764 -c 1 -i 11 -a 1 -x {0.0 4.0 -1 ------- null}
+ -t 0.214904815 -s 0 -d 2 -p udp -e 195 -c 1 -i 12 -a 1 -x {0.0 4.0 12 ------- null}
+ -t 0.218129174 -s 0 -d 2 -p udp -e 451 -c 1 -i 13 -a 1 -x {0.0 4.0 13 ------- null}
r -t 0.21866 -s 0 -d 2 -p udp -e 725 -c 1 -i 4 -a 1 -x {0.0 4.0 4 ------- null}
+ -t 0.21866 -s 2 -d 4 -p udp -e 725 -c 1 -i 4 -a 1 -x {0.0 4.0 4 ------- null}
- -t 0.2201 -s 2 -d 4 -p udp -e 127 -c 1 -i 2 -a 1 -x {0.0 4.0 2 ------- null}
h -t 0.2201 -s 2 -d 4 -p udp -e 127 -c 1 -i 2 -a 1 -x {0.0 4.0 -1 ------- null}
+ -t 0.220126786 -s 0 -d 2 -p udp -e 837 -c 1 -i 14 -a 1 -x {0.0 4.0 14 ------- null}
r -t 0.22222 -s 0 -d 2 -p udp -e 89 -c 1 -i 5 -a 1 -x {0.0 4.0 5 ------- null}
+ -t 0.22222 -s 2 -d 4 -p udp -e 89 -c 1 -i 5 -a 1 -x {0.0 4.0 5 ------- null}
- -t 0.22518 -s 2 -d 4 -p udp -e 112 -c 1 -i 3 -a 1 -x {0.0 4.0 3 ------- null}
h -t 0.22518 -s 2 -d 4 -p udp -e 112 -c 1 -i 3 -a 1 -x {0.0 4.0 -1 ------- null}
- -t 0.22966 -s 2 -d 4 -p udp -e 725 -c 1 -i 4 -a 1 -x {0.0 4.0 4 ------- null}
h -t 0.22966 -s 2 -d 4 -p udp -e 725 -c 1 -i 4 -a 1 -x {0.0 4.0 -1 ------- null}
r -t 0.23114 -s 0 -d 2 -p udp -e 223 -c 1 -i 6 -a 1 -x {0.0 4.0 6 ------- null}
+ -t 0.23114 -s 2 -d 4 -p udp -e 223 -c 1 -i 6 -a 1 -x {0.0 4.0 6 ------- null}
+ -t 0.238243326 -s 0 -d 2 -p udp -e 58 -c 1 -i 15 -a 1 -x {0.0 4.0 15 ------- null}
+ -t 0.239347979 -s 0 -d 2 -p udp -e 1000 -c 1 -i 16 -a 1 -x {0.0 4.0 16 ------- null}
+ -t 0.239347979 -s 0 -d 2 -p udp -e 1000 -c 1 -i 17 -a 1 -x {0.0 4.0 17 ------- null}
+ -t 0.239347979 -s 0 -d 2 -p udp -e 264 -c 1 -i 18 -a 1 -x {0.0 4.0 18 ------- null}
- -t 0.241973585 -s 0 -d 2 -p udp -e 195 -c 1 -i 12 -a 1 -x {0.0 4.0 12 ------- null}
h -t 0.241973585 -s 0 -d 2 -p udp -e 195 -c 1 -i 12 -a 1 -x {0.0 4.0 -1 ------- null}
r -t 0.2483 -s 0 -d 2 -p udp -e 429 -c 1 -i 7 -a 1 -x {0.0 4.0 7 ------- null}
+ -t 0.2483 -s 2 -d 4 -p udp -e 429 -c 1 -i 7 -a 1 -x {0.0 4.0 7 ------- null}
- -t 0.249773585 -s 0 -d 2 -p udp -e 451 -c 1 -i 13 -a 1 -x {0.0 4.0 13 ------- null}
h -t 0.249773585 -s 0 -d 2 -p udp -e 451 -c 1 -i 13 -a 1 -x {0.0 4.0 -1 ------- null}
r -t 0.25258 -s 0 -d 2 -p udp -e 107 -c 1 -i 8 -a 1 -x {0.0 4.0 8 ------- null}
+ -t 0.25258 -s 2 -d 4 -p udp -e 107 -c 1 -i 8 -a 1 -x {0.0 4.0 8 ------- null}
- -t 0.25866 -s 2 -d 4 -p udp -e 89 -c 1 -i 5 -a 1 -x {0.0 4.0 5 ------- null}
h -t 0.25866 -s 2 -d 4 -p udp -e 89 -c 1 -i 5 -a 1 -x {0.0 4.0 -1 ------- null}
- -t 0.26222 -s 2 -d 4 -p udp -e 223 -c 1 -i 6 -a 1 -x {0.0 4.0 6 ------- null}
h -t 0.26222 -s 2 -d 4 -p udp -e 223 -c 1 -i 6 -a 1 -x {0.0 4.0 -1 ------- null}
- -t 0.267813585 -s 0 -d 2 -p udp -e 837 -c 1 -i 14 -a 1 -x {0.0 4.0 14 ------- null}
h -t 0.267813585 -s 0 -d 2 -p udp -e 837 -c 1 -i 14 -a 1 -x {0.0 4.0 -1 ------- null}
- -t 0.27114 -s 2 -d 4 -p udp -e 429 -c 1 -i 7 -a 1 -x {0.0 4.0 7 ------- null}
h -t 0.27114 -s 2 -d 4 -p udp -e 429 -c 1 -i 7 -a 1 -x {0.0 4.0 -1 ------- null}
r -t 0.286938065 -s 0 -d 2 -p udp -e 447 -c 1 -i 9 -a 1 -x {0.0 4.0 9 ------- null}
+ -t 0.286938065 -s 2 -d 4 -p udp -e 447 -c 1 -i 9 -a 1 -x {0.0 4.0 9 ------- null}
- -t 0.2883 -s 2 -d 4 -p udp -e 107 -c 1 -i 8 -a 1 -x {0.0 4.0 8 ------- null}
h -t 0.2883 -s 2 -d 4 -p udp -e 107 -c 1 -i 8 -a 1 -x {0.0 4.0 -1 ------- null}
- -t 0.29258 -s 2 -d 4 -p udp -e 447 -c 1 -i 9 -a 1 -x {0.0 4.0 9 ------- null}
h -t 0.29258 -s 2 -d 4 -p udp -e 447 -c 1 -i 9 -a 1 -x {0.0 4.0 -1 ------- null}
+ -t 0.296155869 -s 0 -d 2 -p udp -e 1000 -c 1 -i 19 -a 1 -x {0.0 4.0 19 ------- null}
+ -t 0.296155869 -s 0 -d 2 -p udp -e 47 -c 1 -i 20 -a 1 -x {0.0 4.0 20 ------- null}
- -t 0.301293585 -s 0 -d 2 -p udp -e 58 -c 1 -i 15 -a 1 -x {0.0 4.0 15 ------- null}
h -t 0.301293585 -s 0 -d 2 -p udp -e 58 -c 1 -i 15 -a 1 -x {0.0 4.0 -1 ------- null}
r -t 0.303507165 -s 0 -d 2 -p udp -e 184 -c 1 -i 10 -a 1 -x {0.0 4.0 10 ------- null}
+ -t 0.303507165 -s 2 -d 4 -p udp -e 184 -c 1 -i 10 -a 1 -x {0.0 4.0 10 ------- null}
- -t 0.303613585 -s 0 -d 2 -p udp -e 1000 -c 1 -i 16 -a 1 -x {0.0 4.0 16 ------- null}
h -t 0.303613585 -s 0 -d 2 -p udp -e 1000 -c 1 -i 16 -a 1 -x {0.0 4.0 -1 ------- null}
- -t 0.31046 -s 2 -d 4 -p udp -e 184 -c 1 -i 10 -a 1 -x {0.0 4.0 10 ------- null}
h -t 0.31046 -s 2 -d 4 -p udp -e 184 -c 1 -i 10 -a 1 -x {0.0 4.0 -1 ------- null}
+ -t 0.317988839 -s 0 -d 2 -p udp -e 179 -c 1 -i 21 -a 1 -x {0.0 4.0 21 ------- null}
r -t 0.341973585 -s 0 -d 2 -p udp -e 764 -c 1 -i 11 -a 1 -x {0.0 4.0 11 ------- null}
+ -t 0.341973585 -s 2 -d 4 -p udp -e 764 -c 1 -i 11 -a 1 -x {0.0 4.0 11 ------- null}
- -t 0.341973585 -s 2 -d 4 -p udp -e 764 -c 1 -i 11 -a 1 -x {0.0 4.0 11 ------- null}
h -t 0.341973585 -s 2 -d 4 -p udp -e 764 -c 1 -i 11 -a 1 -x {0.0 4.0 -1 ------- null}
- -t 0.343613585 -s 0 -d 2 -p udp -e 1000 -c 1 -i 17 -a 1 -x {0.0 4.0 17 ------- null}
h -t 0.343613585 -s 0 -d 2 -p udp -e 1000 -c 1 -i 17 -a 1 -x {0.0 4.0 -1 ------- null}
+ -t 0.345162909 -s 0 -d 2 -p udp -e 670 -c 1 -i 22 -a 1 -x {0.0 4.0 22 ------- null}
+ -t 0.347795729 -s 0 -d 2 -p udp -e 1000 -c 1 -i 23 -a 1 -x {0.0 4.0 23 ------- null}
+ -t 0.347795729 -s 0 -d 2 -p udp -e 796 -c 1 -i 24 -a 1 -x {0.0 4.0 24 ------- null}
r -t 0.349773585 -s 0 -d 2 -p udp -e 195 -c 1 -i 12 -a 1 -x {0.0 4.0 12 ------- null}
+ -t 0.349773585 -s 2 -d 4 -p udp -e 195 -c 1 -i 12 -a 1 -x {0.0 4.0 12 ------- null}
+ -t 0.364876739 -s 0 -d 2 -p udp -e 121 -c 1 -i 25 -a 1 -x {0.0 4.0 25 ------- null}
r -t 0.367813585 -s 0 -d 2 -p udp -e 451 -c 1 -i 13 -a 1 -x {0.0 4.0 13 ------- null}
+ -t 0.367813585 -s 2 -d 4 -p udp -e 451 -c 1 -i 13 -a 1 -x {0.0 4.0 13 ------- null}
- -t 0.372533585 -s 2 -d 4 -p udp -e 195 -c 1 -i 12 -a 1 -x {0.0 4.0 12 ------- null}
h -t 0.372533585 -s 2 -d 4 -p udp -e 195 -c 1 -i 12 -a 1 -x {0.0 4.0 -1 ------- null}
r -t 0.3801 -s 2 -d 4 -p udp -e 1000 -c 1 -i 0 -a 1 -x {0.0 4.0 0 ------- null}
- -t 0.380333585 -s 2 -d 4 -p udp -e 451 -c 1 -i 13 -a 1 -x {0.0 4.0 13 ------- null}
h -t 0.380333585 -s 2 -d 4 -p udp -e 451 -c 1 -i 13 -a 1 -x {0.0 4.0 -1 ------- null}
- -t 0.383613585 -s 0 -d 2 -p udp -e 264 -c 1 -i 18 -a 1 -x {0.0 4.0 18 ------- null}
h -t 0.383613585 -s 0 -d 2 -p udp -e 264 -c 1 -i 18 -a 1 -x {0.0 4.0 -1 ------- null}
- -t 0.394173585 -s 0 -d 2 -p udp -e 1000 -c 1 -i 19 -a 1 -x {0.0 4.0 19 ------- null}
h -t 0.394173585 -s 0 -d 2 -p udp -e 1000 -c 1 -i 19 -a 1 -x {0.0 4.0 -1 ------- null}
+ -t 0.398493889 -s 0 -d 2 -p udp -e 788 -c 1 -i 26 -a 1 -x {0.0 4.0 26 ------- null}
r -t 0.401293585 -s 0 -d 2 -p udp -e 837 -c 1 -i 14 -a 1 -x {0.0 4.0 14 ------- null}
+ -t 0.401293585 -s 2 -d 4 -p udp -e 837 -c 1 -i 14 -a 1 -x {0.0 4.0 14 ------- null}
- -t 0.401293585 -s 2 -d 4 -p udp -e 837 -c 1 -i 14 -a 1 -x {0.0 4.0 14 ------- null}
h -t 0.401293585 -s 2 -d 4 -p udp -e 837 -c 1 -i 14 -a 1 -x {0.0 4.0 -1 ------- null}
r -t 0.403613585 -s 0 -d 2 -p udp -e 58 -c 1 -i 15 -a 1 -x {0.0 4.0 15 ------- null}
+ -t 0.403613585 -s 2 -d 4 -p udp -e 58 -c 1 -i 15 -a 1 -x {0.0 4.0 15 ------- null}
+ -t 0.403651287 -s 0 -d 2 -p udp -e 12 -c 1 -i 27 -a 1 -x {0.0 4.0 27 ------- null}
r -t 0.4201 -s 2 -d 4 -p udp -e 1000 -c 1 -i 1 -a 1 -x {0.0 4.0 1 ------- null}
r -t 0.42518 -s 2 -d 4 -p udp -e 127 -c 1 -i 2 -a 1 -x {0.0 4.0 2 ------- null}
r -t 0.42966 -s 2 -d 4 -p udp -e 112 -c 1 -i 3 -a 1 -x {0.0 4.0 3 ------- null}
- -t 0.434173585 -s 0 -d 2 -p udp -e 47 -c 1 -i 20 -a 1 -x {0.0 4.0 20 ------- null}
h -t 0.434173585 -s 0 -d 2 -p udp -e 47 -c 1 -i 20 -a 1 -x {0.0 4.0 -1 ------- null}
- -t 0.434773585 -s 2 -d 4 -p udp -e 58 -c 1 -i 15 -a 1 -x {0.0 4.0 15 ------- null}
h -t 0.434773585 -s 2 -d 4 -p udp -e 58 -c 1 -i 15 -a 1 -x {0.0 4.0 -1 ------- null}
- -t 0.436053585 -s 0 -d 2 -p udp -e 179 -c 1 -i 21 -a 1 -x {0.0 4.0 21 ------- null}
h -t 0.436053585 -s 0 -d 2 -p udp -e 179 -c 1 -i 21 -a 1 -x {0.0 4.0 -1 ------- null}
+ -t 0.438089107 -s 0 -d 2 -p udp -e 1000 -c 1 -i 28 -a 1 -x {0.0 4.0 28 ------- null}
+ -t 0.438089107 -s 0 -d 2 -p udp -e 497 -c 1 -i 29 -a 1 -x {0.0 4.0 29 ------- null}
- -t 0.443213585 -s 0 -d 2 -p udp -e 670 -c 1 -i 22 -a 1 -x {0.0 4.0 22 ------- null}
h -t 0.443213585 -s 0 -d 2 -p udp -e 670 -c 1 -i 22 -a 1 -x {0.0 4.0 -1 ------- null}
r -t 0.443613585 -s 0 -d 2 -p udp -e 1000 -c 1 -i 16 -a 1 -x {0.0 4.0 16 ------- null}
+ -t 0.443613585 -s 2 -d 4 -p udp -e 1000 -c 1 -i 16 -a 1 -x {0.0 4.0 16 ------- null}
- -t 0.443613585 -s 2 -d 4 -p udp -e 1000 -c 1 -i 16 -a 1 -x {0.0 4.0 16 ------- null}
h -t 0.443613585 -s 2 -d 4 -p udp -e 1000 -c 1 -i 16 -a 1 -x {0.0 4.0 -1 ------- null}
+ -t 0.452285957 -s 0 -d 2 -p udp -e 154 -c 1 -i 30 -a 1 -x {0.0 4.0 30 ------- null}
r -t 0.45866 -s 2 -d 4 -p udp -e 725 -c 1 -i 4 -a 1 -x {0.0 4.0 4 ------- null}
r -t 0.46222 -s 2 -d 4 -p udp -e 89 -c 1 -i 5 -a 1 -x {0.0 4.0 5 ------- null}
+ -t 0.464874437 -s 0 -d 2 -p udp -e 103 -c 1 -i 31 -a 1 -x {0.0 4.0 31 ------- null}
- -t 0.470013585 -s 0 -d 2 -p udp -e 1000 -c 1 -i 23 -a 1 -x {0.0 4.0 23 ------- null}
h -t 0.470013585 -s 0 -d 2 -p udp -e 1000 -c 1 -i 23 -a 1 -x {0.0 4.0 -1 ------- null}
r -t 0.47114 -s 2 -d 4 -p udp -e 223 -c 1 -i 6 -a 1 -x {0.0 4.0 6 ------- null}
r -t 0.483613585 -s 0 -d 2 -p udp -e 1000 -c 1 -i 17 -a 1 -x {0.0 4.0 17 ------- null}
+ -t 0.483613585 -s 2 -d 4 -p udp -e 1000 -c 1 -i 17 -a 1 -x {0.0 4.0 17 ------- null}
- -t 0.483613585 -s 2 -d 4 -p udp -e 1000 -c 1 -i 17 -a 1 -x {0.0 4.0 17 ------- null}
h -t 0.483613585 -s 2 -d 4 -p udp -e 1000 -c 1 -i 17 -a 1 -x {0.0 4.0 -1 ------- null}
r -t 0.4883 -s 2 -d 4 -p udp -e 429 -c 1 -i 7 -a 1 -x {0.0 4.0 7 ------- null}
r -t 0.49258 -s 2 -d 4 -p udp -e 107 -c 1 -i 8 -a 1 -x {0.0 4.0 8 ------- null}
r -t 0.494173585 -s 0 -d 2 -p udp -e 264 -c 1 -i 18 -a 1 -x {0.0 4.0 18 ------- null}
+ -t 0.494173585 -s 2 -d 4 -p udp -e 264 -c 1 -i 18 -a 1 -x {0.0 4.0 18 ------- null}
- -t 0.510013585 -s 0 -d 2 -p udp -e 796 -c 1 -i 24 -a 1 -x {0.0 4.0 24 ------- null}
h -t 0.510013585 -s 0 -d 2 -p udp -e 796 -c 1 -i 24 -a 1 -x {0.0 4.0 -1 ------- null}
r -t 0.51046 -s 2 -d 4 -p udp -e 447 -c 1 -i 9 -a 1 -x {0.0 4.0 9 ------- null}
+ -t 0.513437367 -s 0 -d 2 -p udp -e 67 -c 1 -i 32 -a 1 -x {0.0 4.0 32 ------- null}
r -t 0.51782 -s 2 -d 4 -p udp -e 184 -c 1 -i 10 -a 1 -x {0.0 4.0 10 ------- null}
+ -t 0.519785304 -s 0 -d 2 -p udp -e 110 -c 1 -i 33 -a 1 -x {0.0 4.0 33 ------- null}
- -t 0.523613585 -s 2 -d 4 -p udp -e 264 -c 1 -i 18 -a 1 -x {0.0 4.0 18 ------- null}
h -t 0.523613585 -s 2 -d 4 -p udp -e 264 -c 1 -i 18 -a 1 -x {0.0 4.0 -1 ------- null}
+ -t 0.525920141 -s 0 -d 2 -p udp -e 102 -c 1 -i 34 -a 1 -x {0.0 4.0 34 ------- null}
r -t 0.534173585 -s 0 -d 2 -p udp -e 1000 -c 1 -i 19 -a 1 -x {0.0 4.0 19 ------- null}
+ -t 0.534173585 -s 2 -d 4 -p udp -e 1000 -c 1 -i 19 -a 1 -x {0.0 4.0 19 ------- null}
- -t 0.534173585 -s 2 -d 4 -p udp -e 1000 -c 1 -i 19 -a 1 -x {0.0 4.0 19 ------- null}
h -t 0.534173585 -s 2 -d 4 -p udp -e 1000 -c 1 -i 19 -a 1 -x {0.0 4.0 -1 ------- null}
r -t 0.536053585 -s 0 -d 2 -p udp -e 47 -c 1 -i 20 -a 1 -x {0.0 4.0 20 ------- null}
+ -t 0.536053585 -s 2 -d 4 -p udp -e 47 -c 1 -i 20 -a 1 -x {0.0 4.0 20 ------- null}
+ -t 0.537573431 -s 0 -d 2 -p udp -e 949 -c 1 -i 35 -a 1 -x {0.0 4.0 35 ------- null}
- -t 0.541853585 -s 0 -d 2 -p udp -e 121 -c 1 -i 25 -a 1 -x {0.0 4.0 25 ------- null}
h -t 0.541853585 -s 0 -d 2 -p udp -e 121 -c 1 -i 25 -a 1 -x {0.0 4.0 -1 ------- null}
r -t 0.543213585 -s 0 -d 2 -p udp -e 179 -c 1 -i 21 -a 1 -x {0.0 4.0 21 ------- null}
+ -t 0.543213585 -s 2 -d 4 -p udp -e 179 -c 1 -i 21 -a 1 -x {0.0 4.0 21 ------- null}
+ -t 0.545777178 -s 0 -d 2 -p udp -e 492 -c 1 -i 36 -a 1 -x {0.0 4.0 36 ------- null}
- -t 0.546693585 -s 0 -d 2 -p udp -e 788 -c 1 -i 26 -a 1 -x {0.0 4.0 26 ------- null}
h -t 0.546693585 -s 0 -d 2 -p udp -e 788 -c 1 -i 26 -a 1 -x {0.0 4.0 -1 ------- null}
+ -t 0.557875398 -s 0 -d 2 -p udp -e 551 -c 1 -i 37 -a 1 -x {0.0 4.0 37 ------- null}
r -t 0.570013585 -s 0 -d 2 -p udp -e 670 -c 1 -i 22 -a 1 -x {0.0 4.0 22 ------- null}
+ -t 0.570013585 -s 2 -d 4 -p udp -e 670 -c 1 -i 22 -a 1 -x {0.0 4.0 22 ------- null}
r -t 0.572533585 -s 2 -d 4 -p udp -e 764 -c 1 -i 11 -a 1 -x {0.0 4.0 11 ------- null}
- -t 0.574173585 -s 2 -d 4 -p udp -e 47 -c 1 -i 20 -a 1 -x {0.0 4.0 20 ------- null}
h -t 0.574173585 -s 2 -d 4 -p udp -e 47 -c 1 -i 20 -a 1 -x {0.0 4.0 -1 ------- null}
- -t 0.576053585 -s 2 -d 4 -p udp -e 179 -c 1 -i 21 -a 1 -x {0.0 4.0 21 ------- null}
h -t 0.576053585 -s 2 -d 4 -p udp -e 179 -c 1 -i 21 -a 1 -x {0.0 4.0 -1 ------- null}
- -t 0.578213585 -s 0 -d 2 -p udp -e 12 -c 1 -i 27 -a 1 -x {0.0 4.0 27 ------- null}
h -t 0.578213585 -s 0 -d 2 -p udp -e 12 -c 1 -i 27 -a 1 -x {0.0 4.0 -1 ------- null}
- -t 0.578693585 -s 0 -d 2 -p udp -e 1000 -c 1 -i 28 -a 1 -x {0.0 4.0 28 ------- null}
h -t 0.578693585 -s 0 -d 2 -p udp -e 1000 -c 1 -i 28 -a 1 -x {0.0 4.0 -1 ------- null}
r -t 0.580333585 -s 2 -d 4 -p udp -e 195 -c 1 -i 12 -a 1 -x {0.0 4.0 12 ------- null}
- -t 0.583213585 -s 2 -d 4 -p udp -e 670 -c 1 -i 22 -a 1 -x {0.0 4.0 22 ------- null}
h -t 0.583213585 -s 2 -d 4 -p udp -e 670 -c 1 -i 22 -a 1 -x {0.0 4.0 -1 ------- null}
r -t 0.598373585 -s 2 -d 4 -p udp -e 451 -c 1 -i 13 -a 1 -x {0.0 4.0 13 ------- null}
+ -t 0.607550368 -s 0 -d 2 -p udp -e 1000 -c 1 -i 38 -a 1 -x {0.0 4.0 38 ------- null}
+ -t 0.607550368 -s 0 -d 2 -p udp -e 709 -c 1 -i 39 -a 1 -x {0.0 4.0 39 ------- null}
+ -t 0.609394007 -s 0 -d 2 -p udp -e 1000 -c 1 -i 40 -a 1 -x {0.0 4.0 40 ------- null}
+ -t 0.609394007 -s 0 -d 2 -p udp -e 1000 -c 1 -i 41 -a 1 -x {0.0 4.0 41 ------- null}
+ -t 0.609394007 -s 0 -d 2 -p udp -e 849 -c 1 -i 42 -a 1 -x {0.0 4.0 42 ------- null}
r -t 0.610013585 -s 0 -d 2 -p udp -e 1000 -c 1 -i 23 -a 1 -x {0.0 4.0 23 ------- null}
+ -t 0.610013585 -s 2 -d 4 -p udp -e 1000 -c 1 -i 23 -a 1 -x {0.0 4.0 23 ------- null}
- -t 0.610013585 -s 2 -d 4 -p udp -e 1000 -c 1 -i 23 -a 1 -x {0.0 4.0 23 ------- null}
h -t 0.610013585 -s 2 -d 4 -p udp -e 1000 -c 1 -i 23 -a 1 -x {0.0 4.0 -1 ------- null}
- -t 0.618693585 -s 0 -d 2 -p udp -e 497 -c 1 -i 29 -a 1 -x {0.0 4.0 29 ------- null}
h -t 0.618693585 -s 0 -d 2 -p udp -e 497 -c 1 -i 29 -a 1 -x {0.0 4.0 -1 ------- null}
+ -t 0.633143597 -s 0 -d 2 -p udp -e 64 -c 1 -i 43 -a 1 -x {0.0 4.0 43 ------- null}
r -t 0.634773585 -s 2 -d 4 -p udp -e 837 -c 1 -i 14 -a 1 -x {0.0 4.0 14 ------- null}
+ -t 0.635671706 -s 0 -d 2 -p udp -e 1000 -c 1 -i 44 -a 1 -x {0.0 4.0 44 ------- null}
+ -t 0.635671706 -s 0 -d 2 -p udp -e 722 -c 1 -i 45 -a 1 -x {0.0 4.0 45 ------- null}
r -t 0.637093585 -s 2 -d 4 -p udp -e 58 -c 1 -i 15 -a 1 -x {0.0 4.0 15 ------- null}
- -t 0.638573585 -s 0 -d 2 -p udp -e 154 -c 1 -i 30 -a 1 -x {0.0 4.0 30 ------- null}
h -t 0.638573585 -s 0 -d 2 -p udp -e 154 -c 1 -i 30 -a 1 -x {0.0 4.0 -1 ------- null}
r -t 0.641853585 -s 0 -d 2 -p udp -e 796 -c 1 -i 24 -a 1 -x {0.0 4.0 24 ------- null}
+ -t 0.641853585 -s 2 -d 4 -p udp -e 796 -c 1 -i 24 -a 1 -x {0.0 4.0 24 ------- null}
- -t 0.644733585 -s 0 -d 2 -p udp -e 103 -c 1 -i 31 -a 1 -x {0.0 4.0 31 ------- null}
h -t 0.644733585 -s 0 -d 2 -p udp -e 103 -c 1 -i 31 -a 1 -x {0.0 4.0 -1 ------- null}
r -t 0.646693585 -s 0 -d 2 -p udp -e 121 -c 1 -i 25 -a 1 -x {0.0 4.0 25 ------- null}
+ -t 0.646693585 -s 2 -d 4 -p udp -e 121 -c 1 -i 25 -a 1 -x {0.0 4.0 25 ------- null}
- -t 0.648853585 -s 0 -d 2 -p udp -e 67 -c 1 -i 32 -a 1 -x {0.0 4.0 32 ------- null}
h -t 0.648853585 -s 0 -d 2 -p udp -e 67 -c 1 -i 32 -a 1 -x {0.0 4.0 -1 ------- null}
- -t 0.650013585 -s 2 -d 4 -p udp -e 796 -c 1 -i 24 -a 1 -x {0.0 4.0 24 ------- null}
h -t 0.650013585 -s 2 -d 4 -p udp -e 796 -c 1 -i 24 -a 1 -x {0.0 4.0 -1 ------- null}
- -t 0.651533585 -s 0 -d 2 -p udp -e 110 -c 1 -i 33 -a 1 -x {0.0 4.0 33 ------- null}
h -t 0.651533585 -s 0 -d 2 -p udp -e 110 -c 1 -i 33 -a 1 -x {0.0 4.0 -1 ------- null}
- -t 0.655933585 -s 0 -d 2 -p udp -e 102 -c 1 -i 34 -a 1 -x {0.0 4.0 34 ------- null}
h -t 0.655933585 -s 0 -d 2 -p udp -e 102 -c 1 -i 34 -a 1 -x {0.0 4.0 -1 ------- null}
- -t 0.660013585 -s 0 -d 2 -p udp -e 949 -c 1 -i 35 -a 1 -x {0.0 4.0 35 ------- null}
h -t 0.660013585 -s 0 -d 2 -p udp -e 949 -c 1 -i 35 -a 1 -x {0.0 4.0 -1 ------- null}
+ -t 0.670967946 -s 0 -d 2 -p udp -e 118 -c 1 -i 46 -a 1 -x {0.0 4.0 46 ------- null}
r -t 0.678213585 -s 0 -d 2 -p udp -e 788 -c 1 -i 26 -a 1 -x {0.0 4.0 26 ------- null}
+ -t 0.678213585 -s 2 -d 4 -p udp -e 788 -c 1 -i 26 -a 1 -x {0.0 4.0 26 ------- null}
r -t 0.678693585 -s 0 -d 2 -p udp -e 12 -c 1 -i 27 -a 1 -x {0.0 4.0 27 ------- null}
+ -t 0.678693585 -s 2 -d 4 -p udp -e 12 -c 1 -i 27 -a 1 -x {0.0 4.0 27 ------- null}
+ -t 0.680679012 -s 0 -d 2 -p udp -e 786 -c 1 -i 47 -a 1 -x {0.0 4.0 47 ------- null}
- -t 0.681853585 -s 2 -d 4 -p udp -e 121 -c 1 -i 25 -a 1 -x {0.0 4.0 25 ------- null}
h -t 0.681853585 -s 2 -d 4 -p udp -e 121 -c 1 -i 25 -a 1 -x {0.0 4.0 -1 ------- null}
r -t 0.683613585 -s 2 -d 4 -p udp -e 1000 -c 1 -i 16 -a 1 -x {0.0 4.0 16 ------- null}
- -t 0.686693585 -s 2 -d 4 -p udp -e 788 -c 1 -i 26 -a 1 -x {0.0 4.0 26 ------- null}
h -t 0.686693585 -s 2 -d 4 -p udp -e 788 -c 1 -i 26 -a 1 -x {0.0 4.0 -1 ------- null}
+ -t 0.696593182 -s 0 -d 2 -p udp -e 414 -c 1 -i 48 -a 1 -x {0.0 4.0 48 ------- null}
- -t 0.697973585 -s 0 -d 2 -p udp -e 492 -c 1 -i 36 -a 1 -x {0.0 4.0 36 ------- null}
h -t 0.697973585 -s 0 -d 2 -p udp -e 492 -c 1 -i 36 -a 1 -x {0.0 4.0 -1 ------- null}
+ -t 0.713016682 -s 0 -d 2 -p udp -e 53 -c 1 -i 49 -a 1 -x {0.0 4.0 49 ------- null}
- -t 0.717653585 -s 0 -d 2 -p udp -e 551 -c 1 -i 37 -a 1 -x {0.0 4.0 37 ------- null}
h -t 0.717653585 -s 0 -d 2 -p udp -e 551 -c 1 -i 37 -a 1 -x {0.0 4.0 -1 ------- null}
- -t 0.718213585 -s 2 -d 4 -p udp -e 12 -c 1 -i 27 -a 1 -x {0.0 4.0 27 ------- null}
h -t 0.718213585 -s 2 -d 4 -p udp -e 12 -c 1 -i 27 -a 1 -x {0.0 4.0 -1 ------- null}
r -t 0.718693585 -s 0 -d 2 -p udp -e 1000 -c 1 -i 28 -a 1 -x {0.0 4.0 28 ------- null}
+ -t 0.718693585 -s 2 -d 4 -p udp -e 1000 -c 1 -i 28 -a 1 -x {0.0 4.0 28 ------- null}
- -t 0.718693585 -s 2 -d 4 -p udp -e 1000 -c 1 -i 28 -a 1 -x {0.0 4.0 28 ------- null}
h -t 0.718693585 -s 2 -d 4 -p udp -e 1000 -c 1 -i 28 -a 1 -x {0.0 4.0 -1 ------- null}
r -t 0.723613585 -s 2 -d 4 -p udp -e 1000 -c 1 -i 17 -a 1 -x {0.0 4.0 17 ------- null}
r -t 0.734173585 -s 2 -d 4 -p udp -e 264 -c 1 -i 18 -a 1 -x {0.0 4.0 18 ------- null}
r -t 0.738573585 -s 0 -d 2 -p udp -e 497 -c 1 -i 29 -a 1 -x {0.0 4.0 29 ------- null}
+ -t 0.738573585 -s 2 -d 4 -p udp -e 497 -c 1 -i 29 -a 1 -x {0.0 4.0 29 ------- null}
- -t 0.739693585 -s 0 -d 2 -p udp -e 1000 -c 1 -i 38 -a 1 -x {0.0 4.0 38 ------- null}
h -t 0.739693585 -s 0 -d 2 -p udp -e 1000 -c 1 -i 38 -a 1 -x {0.0 4.0 -1 ------- null}
r -t 0.744733585 -s 0 -d 2 -p udp -e 154 -c 1 -i 30 -a 1 -x {0.0 4.0 30 ------- null}
+ -t 0.744733585 -s 2 -d 4 -p udp -e 154 -c 1 -i 30 -a 1 -x {0.0 4.0 30 ------- null}
r -t 0.748853585 -s 0 -d 2 -p udp -e 103 -c 1 -i 31 -a 1 -x {0.0 4.0 31 ------- null}
+ -t 0.748853585 -s 2 -d 4 -p udp -e 103 -c 1 -i 31 -a 1 -x {0.0 4.0 31 ------- null}
r -t 0.751533585 -s 0 -d 2 -p udp -e 67 -c 1 -i 32 -a 1 -x {0.0 4.0 32 ------- null}
+ -t 0.751533585 -s 2 -d 4 -p udp -e 67 -c 1 -i 32 -a 1 -x {0.0 4.0 32 ------- null}
+ -t 0.755559572 -s 0 -d 2 -p udp -e 430 -c 1 -i 50 -a 1 -x {0.0 4.0 50 ------- null}
r -t 0.755933585 -s 0 -d 2 -p udp -e 110 -c 1 -i 33 -a 1 -x {0.0 4.0 33 ------- null}
+ -t 0.755933585 -s 2 -d 4 -p udp -e 110 -c 1 -i 33 -a 1 -x {0.0 4.0 33 ------- null}
- -t 0.758693585 -s 2 -d 4 -p udp -e 497 -c 1 -i 29 -a 1 -x {0.0 4.0 29 ------- null}
h -t 0.758693585 -s 2 -d 4 -p udp -e 497 -c 1 -i 29 -a 1 -x {0.0 4.0 -1 ------- null}
r -t 0.760013585 -s 0 -d 2 -p udp -e 102 -c 1 -i 34 -a 1 -x {0.0 4.0 34 ------- null}
+ -t 0.760013585 -s 2 -d 4 -p udp -e 102 -c 1 -i 34 -a 1 -x {0.0 4.0 34 ------- null}
+ -t 0.772420152 -s 0 -d 2 -p udp -e 362 -c 1 -i 51 -a 1 -x {0.0 4.0 51 ------- null}
r -t 0.774173585 -s 2 -d 4 -p udp -e 1000 -c 1 -i 19 -a 1 -x {0.0 4.0 19 ------- null}
r -t 0.776053585 -s 2 -d 4 -p udp -e 47 -c 1 -i 20 -a 1 -x {0.0 4.0 20 ------- null}
+ -t 0.778560073 -s 0 -d 2 -p udp -e 81 -c 1 -i 52 -a 1 -x {0.0 4.0 52 ------- null}
- -t 0.778573585 -s 2 -d 4 -p udp -e 154 -c 1 -i 30 -a 1 -x {0.0 4.0 30 ------- null}
h -t 0.778573585 -s 2 -d 4 -p udp -e 154 -c 1 -i 30 -a 1 -x {0.0 4.0 -1 ------- null}
- -t 0.779693585 -s 0 -d 2 -p udp -e 709 -c 1 -i 39 -a 1 -x {0.0 4.0 39 ------- null}
h -t 0.779693585 -s 0 -d 2 -p udp -e 709 -c 1 -i 39 -a 1 -x {0.0 4.0 -1 ------- null}
r -t 0.783213585 -s 2 -d 4 -p udp -e 179 -c 1 -i 21 -a 1 -x {0.0 4.0 21 ------- null}
- -t 0.784733585 -s 2 -d 4 -p udp -e 103 -c 1 -i 31 -a 1 -x {0.0 4.0 31 ------- null}
h -t 0.784733585 -s 2 -d 4 -p udp -e 103 -c 1 -i 31 -a 1 -x {0.0 4.0 -1 ------- null}
+ -t 0.788027784 -s 0 -d 2 -p udp -e 1000 -c 1 -i 53 -a 1 -x {0.0 4.0 53 ------- null}
+ -t 0.788027784 -s 0 -d 2 -p udp -e 371 -c 1 -i 54 -a 1 -x {0.0 4.0 54 ------- null}
- -t 0.788853585 -s 2 -d 4 -p udp -e 67 -c 1 -i 32 -a 1 -x {0.0 4.0 32 ------- null}
h -t 0.788853585 -s 2 -d 4 -p udp -e 67 -c 1 -i 32 -a 1 -x {0.0 4.0 -1 ------- null}
- -t 0.791533585 -s 2 -d 4 -p udp -e 110 -c 1 -i 33 -a 1 -x {0.0 4.0 33 ------- null}
h -t 0.791533585 -s 2 -d 4 -p udp -e 110 -c 1 -i 33 -a 1 -x {0.0 4.0 -1 ------- null}
- -t 0.795933585 -s 2 -d 4 -p udp -e 102 -c 1 -i 34 -a 1 -x {0.0 4.0 34 ------- null}
h -t 0.795933585 -s 2 -d 4 -p udp -e 102 -c 1 -i 34 -a 1 -x {0.0 4.0 -1 ------- null}
r -t 0.797973585 -s 0 -d 2 -p udp -e 949 -c 1 -i 35 -a 1 -x {0.0 4.0 35 ------- null}
+ -t 0.797973585 -s 2 -d 4 -p udp -e 949 -c 1 -i 35 -a 1 -x {0.0 4.0 35 ------- null}
- -t 0.800013585 -s 2 -d 4 -p udp -e 949 -c 1 -i 35 -a 1 -x {0.0 4.0 35 ------- null}
h -t 0.800013585 -s 2 -d 4 -p udp -e 949 -c 1 -i 35 -a 1 -x {0.0 4.0 -1 ------- null}
- -t 0.808053585 -s 0 -d 2 -p udp -e 1000 -c 1 -i 40 -a 1 -x {0.0 4.0 40 ------- null}
h -t 0.808053585 -s 0 -d 2 -p udp -e 1000 -c 1 -i 40 -a 1 -x {0.0 4.0 -1 ------- null}
r -t 0.810013585 -s 2 -d 4 -p udp -e 670 -c 1 -i 22 -a 1 -x {0.0 4.0 22 ------- null}
+ -t 0.816945214 -s 0 -d 2 -p udp -e 1000 -c 1 -i 55 -a 1 -x {0.0 4.0 55 ------- null}
+ -t 0.816945214 -s 0 -d 2 -p udp -e 616 -c 1 -i 56 -a 1 -x {0.0 4.0 56 ------- null}
r -t 0.817653585 -s 0 -d 2 -p udp -e 492 -c 1 -i 36 -a 1 -x {0.0 4.0 36 ------- null}
+ -t 0.817653585 -s 2 -d 4 -p udp -e 492 -c 1 -i 36 -a 1 -x {0.0 4.0 36 ------- null}
+ -t 0.819699564 -s 0 -d 2 -p udp -e 742 -c 1 -i 57 -a 1 -x {0.0 4.0 57 ------- null}
+ -t 0.826656468 -s 0 -d 2 -p udp -e 539 -c 1 -i 58 -a 1 -x {0.0 4.0 58 ------- null}
- -t 0.837973585 -s 2 -d 4 -p udp -e 492 -c 1 -i 36 -a 1 -x {0.0 4.0 36 ------- null}
h -t 0.837973585 -s 2 -d 4 -p udp -e 492 -c 1 -i 36 -a 1 -x {0.0 4.0 -1 ------- null}
r -t 0.839693585 -s 0 -d 2 -p udp -e 551 -c 1 -i 37 -a 1 -x {0.0 4.0 37 ------- null}
+ -t 0.839693585 -s 2 -d 4 -p udp -e 551 -c 1 -i 37 -a 1 -x {0.0 4.0 37 ------- null}
- -t 0.848053585 -s 0 -d 2 -p udp -e 1000 -c 1 -i 41 -a 1 -x {0.0 4.0 41 ------- null}
h -t 0.848053585 -s 0 -d 2 -p udp -e 1000 -c 1 -i 41 -a 1 -x {0.0 4.0 -1 ------- null}
r -t 0.850013585 -s 2 -d 4 -p udp -e 1000 -c 1 -i 23 -a 1 -x {0.0 4.0 23 ------- null}
- -t 0.857653585 -s 2 -d 4 -p udp -e 551 -c 1 -i 37 -a 1 -x {0.0 4.0 37 ------- null}
h -t 0.857653585 -s 2 -d 4 -p udp -e 551 -c 1 -i 37 -a 1 -x {0.0 4.0 -1 ------- null}
r -t 0.879693585 -s 0 -d 2 -p udp -e 1000 -c 1 -i 38 -a 1 -x {0.0 4.0 38 ------- null}
+ -t 0.879693585 -s 2 -d 4 -p udp -e 1000 -c 1 -i 38 -a 1 -x {0.0 4.0 38 ------- null}
- -t 0.879693585 -s 2 -d 4 -p udp -e 1000 -c 1 -i 38 -a 1 -x {0.0 4.0 38 ------- null}
h -t 0.879693585 -s 2 -d 4 -p udp -e 1000 -c 1 -i 38 -a 1 -x {0.0 4.0 -1 ------- null}
r -t 0.881853585 -s 2 -d 4 -p udp -e 796 -c 1 -i 24 -a 1 -x {0.0 4.0 24 ------- null}
+ -t 0.883363488 -s 0 -d 2 -p udp -e 418 -c 1 -i 59 -a 1 -x {0.0 4.0 59 ------- null}
r -t 0.886693585 -s 2 -d 4 -p udp -e 121 -c 1 -i 25 -a 1 -x {0.0 4.0 25 ------- null}
- -t 0.888053585 -s 0 -d 2 -p udp -e 849 -c 1 -i 42 -a 1 -x {0.0 4.0 42 ------- null}
h -t 0.888053585 -s 0 -d 2 -p udp -e 849 -c 1 -i 42 -a 1 -x {0.0 4.0 -1 ------- null}
+ -t 0.892380707 -s 0 -d 2 -p udp -e 31 -c 1 -i 60 -a 1 -x {0.0 4.0 60 ------- null}
r -t 0.908053585 -s 0 -d 2 -p udp -e 709 -c 1 -i 39 -a 1 -x {0.0 4.0 39 ------- null}
+ -t 0.908053585 -s 2 -d 4 -p udp -e 709 -c 1 -i 39 -a 1 -x {0.0 4.0 39 ------- null}
+ -t 0.908716717 -s 0 -d 2 -p udp -e 22 -c 1 -i 61 -a 1 -x {0.0 4.0 61 ------- null}
+ -t 0.910791994 -s 0 -d 2 -p udp -e 28 -c 1 -i 62 -a 1 -x {0.0 4.0 62 ------- null}
d -t 0.910791994 -s 0 -d 2 -p udp -e 28 -c 1 -i 62 -a 1 -x {0.0 4.0 62 ------- null}
r -t 0.918213585 -s 2 -d 4 -p udp -e 788 -c 1 -i 26 -a 1 -x {0.0 4.0 26 ------- null}
r -t 0.918693585 -s 2 -d 4 -p udp -e 12 -c 1 -i 27 -a 1 -x {0.0 4.0 27 ------- null}
- -t 0.919693585 -s 2 -d 4 -p udp -e 709 -c 1 -i 39 -a 1 -x {0.0 4.0 39 ------- null}
h -t 0.919693585 -s 2 -d 4 -p udp -e 709 -c 1 -i 39 -a 1 -x {0.0 4.0 -1 ------- null}
- -t 0.922013585 -s 0 -d 2 -p udp -e 64 -c 1 -i 43 -a 1 -x {0.0 4.0 43 ------- null}
h -t 0.922013585 -s 0 -d 2 -p udp -e 64 -c 1 -i 43 -a 1 -x {0.0 4.0 -1 ------- null}