+ 0.0001 0 2 udp 1000 ------- 1 0.3 2.0 0 0
- 0.0001 0 2 udp 1000 ------- 1 0.3 2.0 0 0
+ 0.0001 0 2 udp 1000 ------- 1 0.3 2.0 1 1
+ 0.0001 0 2 udp 127 ------- 1 0.3 2.0 2 2
+ 0.011844 0 2 udp 112 ------- 1 0.3 2.0 3 3
+ 0.02821 0 2 udp 725 ------- 1 0.3 2.0 4 4
+ 0.032266 0 2 udp 89 ------- 1 0.3 2.0 5 5
- 0.0401 0 2 udp 1000 ------- 1 0.3 2.0 1 1
+ 0.055749 0 2 udp 223 ------- 1 0.3 2.0 6 6
- 0.0801 0 2 udp 127 ------- 1 0.3 2.0 2 2
- 0.08518 0 2 udp 112 ------- 1 0.3 2.0 3 3
- 0.08966 0 2 udp 725 ------- 1 0.3 2.0 4 4
- 0.11866 0 2 udp 89 ------- 1 0.3 2.0 5 5
+ 0.118776 0 2 udp 429 ------- 1 0.3 2.0 7 7
+ 0.121798 0 2 udp 107 ------- 1 0.3 2.0 8 8
- 0.12222 0 2 udp 223 ------- 1 0.3 2.0 6 6
- 0.13114 0 2 udp 429 ------- 1 0.3 2.0 7 7
r 0.1401 0 2 udp 1000 ------- 1 0.3 2.0 0 0
- 0.1483 0 2 udp 107 ------- 1 0.3 2.0 8 8
+ 0.169058 0 2 udp 447 ------- 1 0.3 2.0 9 9
- 0.169058 0 2 udp 447 ------- 1 0.3 2.0 9 9
r 0.1801 0 2 udp 1000 ------- 1 0.3 2.0 1 1
r 0.18518 0 2 udp 127 ------- 1 0.3 2.0 2 2
r 0.18966 0 2 udp 112 ------- 1 0.3 2.0 3 3
+ 0.196147 0 2 udp 184 ------- 1 0.3 2.0 10 10
- 0.196147 0 2 udp 184 ------- 1 0.3 2.0 10 10
+ 0.211414 0 2 udp 764 ------- 1 0.3 2.0 11 11
- 0.211414 0 2 udp 764 ------- 1 0.3 2.0 11 11
+ 0.214905 0 2 udp 195 ------- 1 0.3 2.0 12 12
+ 0.218129 0 2 udp 451 ------- 1 0.3 2.0 13 13
r 0.21866 0 2 udp 725 ------- 1 0.3 2.0 4 4
+ 0.220127 0 2 udp 837 ------- 1 0.3 2.0 14 14
r 0.22222 0 2 udp 89 ------- 1 0.3 2.0 5 5
r 0.23114 0 2 udp 223 ------- 1 0.3 2.0 6 6
+ 0.238243 0 2 udp 58 ------- 1 0.3 2.0 15 15
+ 0.239348 0 2 udp 1000 ------- 1 0.3 2.0 16 16
+ 0.239348 0 2 udp 1000 ------- 1 0.3 2.0 17 17
+ 0.239348 0 2 udp 264 ------- 1 0.3 2.0 18 18
- 0.241974 0 2 udp 195 ------- 1 0.3 2.0 12 12
r 0.2483 0 2 udp 429 ------- 1 0.3 2.0 7 7
- 0.249774 0 2 udp 451 ------- 1 0.3 2.0 13 13
r 0.25258 0 2 udp 107 ------- 1 0.3 2.0 8 8
- 0.267814 0 2 udp 837 ------- 1 0.3 2.0 14 14
r 0.286938 0 2 udp 447 ------- 1 0.3 2.0 9 9
+ 0.296156 0 2 udp 1000 ------- 1 0.3 2.0 19 19
+ 0.296156 0 2 udp 47 ------- 1 0.3 2.0 20 20
- 0.301294 0 2 udp 58 ------- 1 0.3 2.0 15 15
r 0.303507 0 2 udp 184 ------- 1 0.3 2.0 10 10
- 0.303614 0 2 udp 1000 ------- 1 0.3 2.0 16 16
+ 0.317989 0 2 udp 179 ------- 1 0.3 2.0 21 21
r 0.341974 0 2 udp 764 ------- 1 0.3 2.0 11 11
- 0.343614 0 2 udp 1000 ------- 1 0.3 2.0 17 17
+ 0.345163 0 2 udp 670 ------- 1 0.3 2.0 22 22
+ 0.347796 0 2 udp 1000 ------- 1 0.3 2.0 23 23
+ 0.347796 0 2 udp 796 ------- 1 0.3 2.0 24 24
r 0.349774 0 2 udp 195 ------- 1 0.3 2.0 12 12
+ 0.364877 0 2 udp 121 ------- 1 0.3 2.0 25 25
r 0.367814 0 2 udp 451 ------- 1 0.3 2.0 13 13
- 0.383614 0 2 udp 264 ------- 1 0.3 2.0 18 18
- 0.394174 0 2 udp 1000 ------- 1 0.3 2.0 19 19
+ 0.398494 0 2 udp 788 ------- 1 0.3 2.0 26 26
r 0.401294 0 2 udp 837 ------- 1 0.3 2.0 14 14
r 0.403614 0 2 udp 58 ------- 1 0.3 2.0 15 15
+ 0.403651 0 2 udp 12 ------- 1 0.3 2.0 27 27
- 0.434174 0 2 udp 47 ------- 1 0.3 2.0 20 20
- 0.436054 0 2 udp 179 ------- 1 0.3 2.0 21 21
+ 0.438089 0 2 udp 1000 ------- 1 0.3 2.0 28 28
+ 0.438089 0 2 udp 497 ------- 1 0.3 2.0 29 29
- 0.443214 0 2 udp 670 ------- 1 0.3 2.0 22 22
r 0.443614 0 2 udp 1000 ------- 1 0.3 2.0 16 16
+ 0.452286 0 2 udp 154 ------- 1 0.3 2.0 30 30
+ 0.464874 0 2 udp 103 ------- 1 0.3 2.0 31 31
- 0.470014 0 2 udp 1000 ------- 1 0.3 2.0 23 23
r 0.483614 0 2 udp 1000 ------- 1 0.3 2.0 17 17
r 0.494174 0 2 udp 264 ------- 1 0.3 2.0 18 18
- 0.510014 0 2 udp 796 ------- 1 0.3 2.0 24 24
+ 0.513437 0 2 udp 67 ------- 1 0.3 2.0 32 32
+ 0.519785 0 2 udp 110 ------- 1 0.3 2.0 33 33
+ 0.52592 0 2 udp 102 ------- 1 0.3 2.0 34 34
r 0.534174 0 2 udp 1000 ------- 1 0.3 2.0 19 19
r 0.536054 0 2 udp 47 ------- 1 0.3 2.0 20 20
+ 0.537573 0 2 udp 949 ------- 1 0.3 2.0 35 35
- 0.541854 0 2 udp 121 ------- 1 0.3 2.0 25 25
r 0.543214 0 2 udp 179 ------- 1 0.3 2.0 21 21
+ 0.545777 0 2 udp 492 ------- 1 0.3 2.0 36 36
- 0.546694 0 2 udp 788 ------- 1 0.3 2.0 26 26
+ 0.557875 0 2 udp 551 ------- 1 0.3 2.0 37 37
r 0.570014 0 2 udp 670 ------- 1 0.3 2.0 22 22
- 0.578214 0 2 udp 12 ------- 1 0.3 2.0 27 27
- 0.578694 0 2 udp 1000 ------- 1 0.3 2.0 28 28
+ 0.60755 0 2 udp 1000 ------- 1 0.3 2.0 38 38
+ 0.60755 0 2 udp 709 ------- 1 0.3 2.0 39 39
+ 0.609394 0 2 udp 1000 ------- 1 0.3 2.0 40 40
+ 0.609394 0 2 udp 1000 ------- 1 0.3 2.0 41 41
+ 0.609394 0 2 udp 849 ------- 1 0.3 2.0 42 42
r 0.610014 0 2 udp 1000 ------- 1 0.3 2.0 23 23
- 0.618694 0 2 udp 497 ------- 1 0.3 2.0 29 29
+ 0.633144 0 2 udp 64 ------- 1 0.3 2.0 43 43
+ 0.635672 0 2 udp 1000 ------- 1 0.3 2.0 44 44
+ 0.635672 0 2 udp 722 ------- 1 0.3 2.0 45 45
- 0.638574 0 2 udp 154 ------- 1 0.3 2.0 30 30
r 0.641854 0 2 udp 796 ------- 1 0.3 2.0 24 24
- 0.644734 0 2 udp 103 ------- 1 0.3 2.0 31 31
r 0.646694 0 2 udp 121 ------- 1 0.3 2.0 25 25
- 0.648854 0 2 udp 67 ------- 1 0.3 2.0 32 32
- 0.651534 0 2 udp 110 ------- 1 0.3 2.0 33 33
- 0.655934 0 2 udp 102 ------- 1 0.3 2.0 34 34
- 0.660014 0 2 udp 949 ------- 1 0.3 2.0 35 35
+ 0.670968 0 2 udp 118 ------- 1 0.3 2.0 46 46
r 0.678214 0 2 udp 788 ------- 1 0.3 2.0 26 26
r 0.678694 0 2 udp 12 ------- 1 0.3 2.0 27 27
+ 0.680679 0 2 udp 786 ------- 1 0.3 2.0 47 47
+ 0.696593 0 2 udp 414 ------- 1 0.3 2.0 48 48
- 0.697974 0 2 udp 492 ------- 1 0.3 2.0 36 36
+ 0.713017 0 2 udp 53 ------- 1 0.3 2.0 49 49
- 0.717654 0 2 udp 551 ------- 1 0.3 2.0 37 37
r 0.718694 0 2 udp 1000 ------- 1 0.3 2.0 28 28
r 0.738574 0 2 udp 497 ------- 1 0.3 2.0 29 29
- 0.739694 0 2 udp 1000 ------- 1 0.3 2.0 38 38
r 0.744734 0 2 udp 154 ------- 1 0.3 2.0 30 30
r 0.748854 0 2 udp 103 ------- 1 0.3 2.0 31 31
r 0.751534 0 2 udp 67 ------- 1 0.3 2.0 32 32
+ 0.75556 0 2 udp 430 ------- 1 0.3 2.0 50 50
r 0.755934 0 2 udp 110 ------- 1 0.3 2.0 33 33
r 0.760014 0 2 udp 102 ------- 1 0.3 2.0 34 34
+ 0.77242 0 2 udp 362 ------- 1 0.3 2.0 51 51
+ 0.77856 0 2 udp 81 ------- 1 0.3 2.0 52 52
- 0.779694 0 2 udp 709 ------- 1 0.3 2.0 39 39
+ 0.788028 0 2 udp 1000 ------- 1 0.3 2.0 53 53
+ 0.788028 0 2 udp 371 ------- 1 0.3 2.0 54 54
r 0.797974 0 2 udp 949 ------- 1 0.3 2.0 35 35
- 0.808054 0 2 udp 1000 ------- 1 0.3 2.0 40 40
+ 0.816945 0 2 udp 1000 ------- 1 0.3 2.0 55 55
+ 0.816945 0 2 udp 616 ------- 1 0.3 2.0 56 56
r 0.817654 0 2 udp 492 ------- 1 0.3 2.0 36 36
+ 0.8197 0 2 udp 742 ------- 1 0.3 2.0 57 57
+ 0.826656 0 2 udp 539 ------- 1 0.3 2.0 58 58
r 0.839694 0 2 udp 551 ------- 1 0.3 2.0 37 37
- 0.848054 0 2 udp 1000 ------- 1 0.3 2.0 41 41
r 0.879694 0 2 udp 1000 ------- 1 0.3 2.0 38 38
+ 0.883363 0 2 udp 418 ------- 1 0.3 2.0 59 59
- 0.888054 0 2 udp 849 ------- 1 0.3 2.0 42 42
+ 0.892381 0 2 udp 31 ------- 1 0.3 2.0 60 60
r 0.908054 0 2 udp 709 ------- 1 0.3 2.0 39 39
+ 0.908717 0 2 udp 22 ------- 1 0.3 2.0 61 61
+ 0.910792 0 2 udp 28 ------- 1 0.3 2.0 62 62
d 0.910792 0 2 udp 28 ------- 1 0.3 2.0 62 62
- 0.922014 0 2 udp 64 ------- 1 0.3 2.0 43 43
- 0.924574 0 2 udp 1000 ------- 1 0.3 2.0 44 44
r 0.948054 0 2 udp 1000 ------- 1 0.3 2.0 40 40
+ 0.948497 0 2 udp 1000 ------- 1 0.3 2.0 63 63
+ 0.948497 0 2 udp 355 ------- 1 0.3 2.0 64 64
+ 0.960993 0 2 udp 63 ------- 1 0.3 2.0 65 65
d 0.960993 0 2 udp 63 ------- 1 0.3 2.0 65 65
- 0.964574 0 2 udp 722 ------- 1 0.3 2.0 45 45
+ 0.974148 0 2 udp 367 ------- 1 0.3 2.0 66 66
r 0.988054 0 2 udp 1000 ------- 1 0.3 2.0 41 41
- 0.993454 0 2 udp 118 ------- 1 0.3 2.0 46 46
- 0.998174 0 2 udp 786 ------- 1 0.3 2.0 47 47
+ 1.00087 0 2 udp 196 ------- 1 0.3 2.0 67 67
r 1.022014 0 2 udp 849 ------- 1 0.3 2.0 42 42
r 1.024574 0 2 udp 64 ------- 1 0.3 2.0 43 43
- 1.029614 0 2 udp 414 ------- 1 0.3 2.0 48 48
+ 1.032479 0 2 udp 664 ------- 1 0.3 2.0 68 68
- 1.046174 0 2 udp 53 ------- 1 0.3 2.0 49 49
- 1.048294 0 2 udp 430 ------- 1 0.3 2.0 50 50
r 1.064574 0 2 udp 1000 ------- 1 0.3 2.0 44 44
- 1.065494 0 2 udp 362 ------- 1 0.3 2.0 51 51
+ 1.0689 0 2 udp 211 ------- 1 0.3 2.0 69 69
+ 1.07873 0 2 udp 897 ------- 1 0.3 2.0 70 70
- 1.079974 0 2 udp 81 ------- 1 0.3 2.0 52 52
- 1.083214 0 2 udp 1000 ------- 1 0.3 2.0 53 53
r 1.093454 0 2 udp 722 ------- 1 0.3 2.0 45 45
r 1.098174 0 2 udp 118 ------- 1 0.3 2.0 46 46
+ 1.104158 0 2 udp 1000 ------- 1 0.3 2.0 71 71
+ 1.104158 0 2 udp 279 ------- 1 0.3 2.0 72 72
- 1.123214 0 2 udp 371 ------- 1 0.3 2.0 54 54
r 1.129614 0 2 udp 786 ------- 1 0.3 2.0 47 47
- 1.138054 0 2 udp 1000 ------- 1 0.3 2.0 55 55
r 1.146174 0 2 udp 414 ------- 1 0.3 2.0 48 48
r 1.148294 0 2 udp 53 ------- 1 0.3 2.0 49 49
r 1.165494 0 2 udp 430 ------- 1 0.3 2.0 50 50
+ 1.167764 0 2 udp 512 ------- 1 0.3 2.0 73 73
- 1.178054 0 2 udp 616 ------- 1 0.3 2.0 56 56
r 1.179974 0 2 udp 362 ------- 1 0.3 2.0 51 51
r 1.183214 0 2 udp 81 ------- 1 0.3 2.0 52 52
- 1.202694 0 2 udp 742 ------- 1 0.3 2.0 57 57
r 1.223214 0 2 udp 1000 ------- 1 0.3 2.0 53 53
+ 1.226171 0 2 udp 24 ------- 1 0.3 2.0 74 74
- 1.232374 0 2 udp 539 ------- 1 0.3 2.0 58 58
r 1.238054 0 2 udp 371 ------- 1 0.3 2.0 54 54
- 1.253934 0 2 udp 418 ------- 1 0.3 2.0 59 59
- 1.270654 0 2 udp 31 ------- 1 0.3 2.0 60 60
- 1.271894 0 2 udp 22 ------- 1 0.3 2.0 61 61
- 1.272774 0 2 udp 1000 ------- 1 0.3 2.0 63 63
r 1.278054 0 2 udp 1000 ------- 1 0.3 2.0 55 55
+ 1.284054 0 2 udp 422 ------- 1 0.3 2.0 75 75
+ 1.29095 0 2 udp 305 ------- 1 0.3 2.0 76 76
r 1.302694 0 2 udp 616 ------- 1 0.3 2.0 56 56
+ 1.309638 0 2 udp 437 ------- 1 0.3 2.0 77 77
- 1.312774 0 2 udp 355 ------- 1 0.3 2.0 64 64
+ 1.320525 0 2 udp 77 ------- 1 0.3 2.0 78 78
+ 1.324841 0 2 udp 1000 ------- 1 0.3 2.0 79 79
+ 1.324841 0 2 udp 288 ------- 1 0.3 2.0 80 80
- 1.326974 0 2 udp 367 ------- 1 0.3 2.0 66 66
+ 1.329463 0 2 udp 370 ------- 1 0.3 2.0 81 81
r 1.332374 0 2 udp 742 ------- 1 0.3 2.0 57 57
+ 1.332991 0 2 udp 1000 ------- 1 0.3 2.0 82 82
+ 1.332991 0 2 udp 958 ------- 1 0.3 2.0 83 83
- 1.341654 0 2 udp 196 ------- 1 0.3 2.0 67 67
- 1.349494 0 2 udp 664 ------- 1 0.3 2.0 68 68
r 1.353934 0 2 udp 539 ------- 1 0.3 2.0 58 58
+ 1.359196 0 2 udp 359 ------- 1 0.3 2.0 84 84
r 1.370654 0 2 udp 418 ------- 1 0.3 2.0 59 59
r 1.371894 0 2 udp 31 ------- 1 0.3 2.0 60 60
r 1.372774 0 2 udp 22 ------- 1 0.3 2.0 61 61
+ 1.375988 0 2 udp 186 ------- 1 0.3 2.0 85 85
- 1.376054 0 2 udp 211 ------- 1 0.3 2.0 69 69
- 1.384494 0 2 udp 897 ------- 1 0.3 2.0 70 70
r 1.412774 0 2 udp 1000 ------- 1 0.3 2.0 63 63
- 1.420374 0 2 udp 1000 ------- 1 0.3 2.0 71 71
r 1.426974 0 2 udp 355 ------- 1 0.3 2.0 64 64
r 1.441654 0 2 udp 367 ------- 1 0.3 2.0 66 66
r 1.449494 0 2 udp 196 ------- 1 0.3 2.0 67 67
- 1.460374 0 2 udp 279 ------- 1 0.3 2.0 72 72
- 1.471534 0 2 udp 512 ------- 1 0.3 2.0 73 73
+ 1.472718 0 2 udp 54 ------- 1 0.3 2.0 86 86
r 1.476054 0 2 udp 664 ------- 1 0.3 2.0 68 68
r 1.484494 0 2 udp 211 ------- 1 0.3 2.0 69 69
+ 1.487855 0 2 udp 1000 ------- 1 0.3 2.0 87 87
+ 1.487855 0 2 udp 612 ------- 1 0.3 2.0 88 88
- 1.492014 0 2 udp 24 ------- 1 0.3 2.0 74 74
- 1.492974 0 2 udp 422 ------- 1 0.3 2.0 75 75
+ 1.502637 0 2 udp 341 ------- 1 0.3 2.0 89 89
- 1.509854 0 2 udp 305 ------- 1 0.3 2.0 76 76
+ 1.519394 0 2 udp 643 ------- 1 0.3 2.0 90 90
r 1.520374 0 2 udp 897 ------- 1 0.3 2.0 70 70
- 1.522054 0 2 udp 437 ------- 1 0.3 2.0 77 77
+ 1.538158 0 2 udp 1000 ------- 1 0.3 2.0 91 91
+ 1.538158 0 2 udp 669 ------- 1 0.3 2.0 92 92
+ 1.53922 0 2 udp 405 ------- 1 0.3 2.0 93 93
- 1.539534 0 2 udp 77 ------- 1 0.3 2.0 78 78
- 1.542614 0 2 udp 1000 ------- 1 0.3 2.0 79 79
r 1.560374 0 2 udp 1000 ------- 1 0.3 2.0 71 71
r 1.571534 0 2 udp 279 ------- 1 0.3 2.0 72 72
+ 1.577202 0 2 udp 1000 ------- 1 0.3 2.0 94 94
+ 1.577202 0 2 udp 447 ------- 1 0.3 2.0 95 95
- 1.582614 0 2 udp 288 ------- 1 0.3 2.0 80 80
r 1.592014 0 2 udp 512 ------- 1 0.3 2.0 73 73
r 1.592974 0 2 udp 24 ------- 1 0.3 2.0 74 74
- 1.594134 0 2 udp 370 ------- 1 0.3 2.0 81 81
- 1.608934 0 2 udp 1000 ------- 1 0.3 2.0 82 82
r 1.609854 0 2 udp 422 ------- 1 0.3 2.0 75 75
+ 1.617944 0 2 udp 553 ------- 1 0.3 2.0 96 96
r 1.622054 0 2 udp 305 ------- 1 0.3 2.0 76 76
r 1.639534 0 2 udp 437 ------- 1 0.3 2.0 77 77
+ 1.641668 0 2 udp 126 ------- 1 0.3 2.0 97 97
r 1.642614 0 2 udp 77 ------- 1 0.3 2.0 78 78
- 1.648934 0 2 udp 958 ------- 1 0.3 2.0 83 83
+ 1.661346 0 2 udp 86 ------- 1 0.3 2.0 98 98
+ 1.673538 0 2 udp 327 ------- 1 0.3 2.0 99 99
r 1.682614 0 2 udp 1000 ------- 1 0.3 2.0 79 79
- 1.687254 0 2 udp 359 ------- 1 0.3 2.0 84 84
+ 1.689013 0 2 udp 40 ------- 1 0.3 2.0 100 100
r 1.694134 0 2 udp 288 ------- 1 0.3 2.0 80 80
+ 1.699885 0 2 udp 581 ------- 1 0.3 2.0 101 101
- 1.701614 0 2 udp 186 ------- 1 0.3 2.0 85 85
r 1.708934 0 2 udp 370 ------- 1 0.3 2.0 81 81
- 1.709054 0 2 udp 54 ------- 1 0.3 2.0 86 86
- 1.711214 0 2 udp 1000 ------- 1 0.3 2.0 87 87
r 1.748934 0 2 udp 1000 ------- 1 0.3 2.0 82 82
- 1.751214 0 2 udp 612 ------- 1 0.3 2.0 88 88
+ 1.754517 0 2 udp 6 ------- 1 0.3 2.0 102 102
+ 1.76949 0 2 udp 75 ------- 1 0.3 2.0 103 103
- 1.775694 0 2 udp 341 ------- 1 0.3 2.0 89 89
r 1.787254 0 2 udp 958 ------- 1 0.3 2.0 83 83
- 1.789334 0 2 udp 643 ------- 1 0.3 2.0 90 90
+ 1.797313 0 2 udp 556 ------- 1 0.3 2.0 104 104
+ 1.79936 0 2 udp 402 ------- 1 0.3 2.0 105 105
r 1.801614 0 2 udp 359 ------- 1 0.3 2.0 84 84
+ 1.804621 0 2 udp 657 ------- 1 0.3 2.0 106 106
r 1.809054 0 2 udp 186 ------- 1 0.3 2.0 85 85
r 1.811214 0 2 udp 54 ------- 1 0.3 2.0 86 86
- 1.815054 0 2 udp 1000 ------- 1 0.3 2.0 91 91
r 1.851214 0 2 udp 1000 ------- 1 0.3 2.0 87 87
- 1.855054 0 2 udp 669 ------- 1 0.3 2.0 92 92
+ 1.857575 0 2 udp 266 ------- 1 0.3 2.0 107 107
+ 1.873711 0 2 udp 691 ------- 1 0.3 2.0 108 108
r 1.875694 0 2 udp 612 ------- 1 0.3 2.0 88 88
- 1.881814 0 2 udp 405 ------- 1 0.3 2.0 93 93
+ 1.884787 0 2 udp 354 ------- 1 0.3 2.0 109 109
r 1.889334 0 2 udp 341 ------- 1 0.3 2.0 89 89
- 1.898014 0 2 udp 1000 ------- 1 0.3 2.0 94 94
r 1.915054 0 2 udp 643 ------- 1 0.3 2.0 90 90
- 1.938014 0 2 udp 447 ------- 1 0.3 2.0 95 95
+ 1.939271 0 2 udp 357 ------- 1 0.3 2.0 110 110
+ 1.942857 0 2 udp 255 ------- 1 0.3 2.0 111 111
r 1.955054 0 2 udp 1000 ------- 1 0.3 2.0 91 91
- 1.955894 0 2 udp 553 ------- 1 0.3 2.0 96 96
+ 1.961244 0 2 udp 416 ------- 1 0.3 2.0 112 112
+ 1.964451 0 2 udp 568 ------- 1 0.3 2.0 113 113
- 1.978014 0 2 udp 126 ------- 1 0.3 2.0 97 97
r 1.981814 0 2 udp 669 ------- 1 0.3 2.0 92 92
- 1.983054 0 2 udp 86 ------- 1 0.3 2.0 98 98
- 1.986494 0 2 udp 327 ------- 1 0.3 2.0 99 99
r 1.998014 0 2 udp 405 ------- 1 0.3 2.0 93 93
- 1.999574 0 2 udp 40 ------- 1 0.3 2.0 100 100
+ 2.0001 1 2 udp 512 ------- 2 1.3 2.2 0 114
- 2.0001 1 2 udp 512 ------- 2 1.3 2.2 0 114
- 2.001174 0 2 udp 581 ------- 1 0.3 2.0 101 101
+ 2.005406 0 2 udp 1000 ------- 1 0.3 2.0 114 115
+ 2.005406 0 2 udp 161 ------- 1 0.3 2.0 115 116
+ 2.015234 1 2 udp 512 ------- 2 1.3 2.2 1 117
- 2.015234 1 2 udp 512 ------- 2 1.3 2.2 1 117
- 2.024414 0 2 udp 6 ------- 1 0.3 2.0 102 102
- 2.024654 0 2 udp 75 ------- 1 0.3 2.0 103 103
+ 2.02517 0 2 udp 407 ------- 1 0.3 2.0 116 118
- 2.027654 0 2 udp 556 ------- 1 0.3 2.0 104 104
+ 2.030093 1 2 udp 512 ------- 2 1.3 2.2 2 119
- 2.030093 1 2 udp 512 ------- 2 1.3 2.2 2 119
r 2.038014 0 2 udp 1000 ------- 1 0.3 2.0 94 94
+ 2.04115 2 6 udp 512 ------- 2 2.3 6.1 0 120
- 2.04115 2 6 udp 512 ------- 2 2.3 6.1 0 120
+ 2.04276 2 6 udp 512 ------- 2 2.3 6.1 1 121
- 2.049894 0 2 udp 402 ------- 1 0.3 2.0 105 105
r 2.055894 0 2 udp 447 ------- 1 0.3 2.0 95 95
+ 2.060622 2 6 udp 512 ------- 2 2.3 6.1 2 122
- 2.06163 2 6 udp 512 ------- 2 2.3 6.1 1 121
- 2.065974 0 2 udp 657 ------- 1 0.3 2.0 106 106
+ 2.066411 2 6 udp 512 ------- 2 2.3 6.1 3 123
+ 2.066689 2 6 udp 512 ------- 2 2.3 6.1 4 124
+ 2.071223 1 2 udp 512 ------- 2 1.3 2.2 3 125
- 2.071223 1 2 udp 512 ------- 2 1.3 2.2 3 125
+ 2.07658 0 2 udp 52 ------- 1 0.3 2.0 117 126
r 2.078014 0 2 udp 553 ------- 1 0.3 2.0 96 96
+ 2.078612 0 2 udp 1000 ------- 1 0.3 2.0 118 127
+ 2.078612 0 2 udp 230 ------- 1 0.3 2.0 119 128
- 2.08211 2 6 udp 512 ------- 2 2.3 6.1 2 122
r 2.083054 0 2 udp 126 ------- 1 0.3 2.0 97 97
+ 2.085149 1 2 udp 512 ------- 2 1.3 2.2 4 129
- 2.085149 1 2 udp 512 ------- 2 1.3 2.2 4 129
r 2.086494 0 2 udp 86 ------- 1 0.3 2.0 98 98
- 2.092254 0 2 udp 266 ------- 1 0.3 2.0 107 107
+ 2.09412 0 2 udp 260 ------- 1 0.3 2.0 120 130
+ 2.096356 1 2 udp 512 ------- 2 1.3 2.2 5 131
- 2.096356 1 2 udp 512 ------- 2 1.3 2.2 5 131
r 2.099574 0 2 udp 327 ------- 1 0.3 2.0 99 99
r 2.101174 0 2 udp 40 ------- 1 0.3 2.0 100 100
- 2.10259 2 6 udp 512 ------- 2 2.3 6.1 3 123
- 2.102894 0 2 udp 691 ------- 1 0.3 2.0 108 108
r 2.108292 1 2 udp 512 ------- 2 1.3 2.2 0 114
+ 2.108555 1 2 udp 512 ------- 2 1.3 2.2 6 132
- 2.108555 1 2 udp 512 ------- 2 1.3 2.2 6 132
+ 2.115961 1 2 udp 512 ------- 2 1.3 2.2 7 133
- 2.116747 1 2 udp 512 ------- 2 1.3 2.2 7 133
+ 2.119503 0 2 udp 642 ------- 1 0.3 2.0 121 134
- 2.12307 2 6 udp 512 ------- 2 2.3 6.1 4 124
r 2.123426 1 2 udp 512 ------- 2 1.3 2.2 1 117
+ 2.124294 1 2 udp 512 ------- 2 1.3 2.2 8 135
r 2.124414 0 2 udp 581 ------- 1 0.3 2.0 101 101
r 2.124654 0 2 udp 6 ------- 1 0.3 2.0 102 102
- 2.124939 1 2 udp 512 ------- 2 1.3 2.2 8 135
r 2.127654 0 2 udp 75 ------- 1 0.3 2.0 103 103
- 2.130534 0 2 udp 354 ------- 1 0.3 2.0 109 109
r 2.138285 1 2 udp 512 ------- 2 1.3 2.2 2 119
- 2.144694 0 2 udp 357 ------- 1 0.3 2.0 110 110
r 2.149894 0 2 udp 556 ------- 1 0.3 2.0 104 104
+ 2.150247 1 2 udp 512 ------- 2 1.3 2.2 9 136
- 2.150247 1 2 udp 512 ------- 2 1.3 2.2 9 136
+ 2.151114 1 2 udp 512 ------- 2 1.3 2.2 10 137
+ 2.155032 1 2 udp 512 ------- 2 1.3 2.2 11 138
+ 2.156826 0 2 udp 682 ------- 1 0.3 2.0 122 139
- 2.158439 1 2 udp 512 ------- 2 1.3 2.2 10 137
- 2.158974 0 2 udp 255 ------- 1 0.3 2.0 111 111
r 2.165974 0 2 udp 402 ------- 1 0.3 2.0 105 105
- 2.166631 1 2 udp 512 ------- 2 1.3 2.2 11 138
+ 2.167133 1 2 udp 512 ------- 2 1.3 2.2 12 140
- 2.169174 0 2 udp 416 ------- 1 0.3 2.0 112 112
+ 2.172123 0 2 udp 495 ------- 1 0.3 2.0 123 141
+ 2.172972 0 2 udp 260 ------- 1 0.3 2.0 124 142
- 2.174823 1 2 udp 512 ------- 2 1.3 2.2 12 140
r 2.179415 1 2 udp 512 ------- 2 1.3 2.2 3 125
+ 2.180384 0 2 udp 1000 ------- 1 0.3 2.0 125 143
+ 2.180384 0 2 udp 116 ------- 1 0.3 2.0 126 144
- 2.185814 0 2 udp 568 ------- 1 0.3 2.0 113 113
r 2.192254 0 2 udp 657 ------- 1 0.3 2.0 106 106
r 2.193341 1 2 udp 512 ------- 2 1.3 2.2 4 129
+ 2.193424 1 2 udp 512 ------- 2 1.3 2.2 13 145
- 2.193424 1 2 udp 512 ------- 2 1.3 2.2 13 145
r 2.202894 0 2 udp 266 ------- 1 0.3 2.0 107 107
+ 2.20452 1 2 udp 512 ------- 2 1.3 2.2 14 146
- 2.20452 1 2 udp 512 ------- 2 1.3 2.2 14 146
r 2.204548 1 2 udp 512 ------- 2 1.3 2.2 5 131
+ 2.204583 1 2 udp 512 ------- 2 1.3 2.2 15 147
- 2.208534 0 2 udp 1000 ------- 1 0.3 2.0 114 115
- 2.212712 1 2 udp 512 ------- 2 1.3 2.2 15 147
+ 2.213465 0 2 udp 581 ------- 1 0.3 2.0 127 148
r 2.216747 1 2 udp 512 ------- 2 1.3 2.2 6 132
+ 2.217547 0 2 udp 1000 ------- 1 0.3 2.0 128 149
+ 2.217547 0 2 udp 581 ------- 1 0.3 2.0 129 150
+ 2.220229 0 2 udp 333 ------- 1 0.3 2.0 130 151
+ 2.220926 1 2 udp 512 ------- 2 1.3 2.2 16 152
- 2.220926 1 2 udp 512 ------- 2 1.3 2.2 16 152
+ 2.22383 0 2 udp 787 ------- 1 0.3 2.0 131 153
r 2.224939 1 2 udp 512 ------- 2 1.3 2.2 7 133
r 2.230534 0 2 udp 691 ------- 1 0.3 2.0 108 108
r 2.233131 1 2 udp 512 ------- 2 1.3 2.2 8 135
+ 2.239424 1 2 udp 512 ------- 2 1.3 2.2 17 154
- 2.239424 1 2 udp 512 ------- 2 1.3 2.2 17 154
+ 2.241161 0 2 udp 252 ------- 1 0.3 2.0 132 155
+ 2.241421 0 2 udp 462 ------- 1 0.3 2.0 133 156
r 2.244694 0 2 udp 354 ------- 1 0.3 2.0 109 109
- 2.248534 0 2 udp 161 ------- 1 0.3 2.0 115 116
+ 2.251862 1 2 udp 512 ------- 2 1.3 2.2 18 157
- 2.251862 1 2 udp 512 ------- 2 1.3 2.2 18 157
+ 2.253462 1 2 udp 512 ------- 2 1.3 2.2 19 158
- 2.254974 0 2 udp 407 ------- 1 0.3 2.0 116 118
r 2.258439 1 2 udp 512 ------- 2 1.3 2.2 9 136
r 2.258974 0 2 udp 357 ------- 1 0.3 2.0 110 110
- 2.260054 1 2 udp 512 ------- 2 1.3 2.2 19 158
r 2.26163 2 6 udp 512 ------- 2 2.3 6.1 0 120
+ 2.263478 0 2 udp 458 ------- 1 0.3 2.0 134 159
r 2.266631 1 2 udp 512 ------- 2 1.3 2.2 10 137
r 2.269174 0 2 udp 255 ------- 1 0.3 2.0 111 111
- 2.271254 0 2 udp 52 ------- 1 0.3 2.0 117 126
- 2.273334 0 2 udp 1000 ------- 1 0.3 2.0 118 127
+ 2.274265 0 2 udp 409 ------- 1 0.3 2.0 135 160
+ 2.274498 0 2 udp 5 ------- 1 0.3 2.0 136 161
r 2.274823 1 2 udp 512 ------- 2 1.3 2.2 11 138
+ 2.277787 1 2 udp 512 ------- 2 1.3 2.2 20 162
- 2.277787 1 2 udp 512 ------- 2 1.3 2.2 20 162
r 2.28211 2 6 udp 512 ------- 2 2.3 6.1 1 121
r 2.283015 1 2 udp 512 ------- 2 1.3 2.2 12 140
+ 2.285413 1 2 udp 512 ------- 2 1.3 2.2 21 163
r 2.285814 0 2 udp 416 ------- 1 0.3 2.0 112 112
- 2.285979 1 2 udp 512 ------- 2 1.3 2.2 21 163
+ 2.286329 0 2 udp 1000 ------- 1 0.3 2.0 137 164
+ 2.286329 0 2 udp 712 ------- 1 0.3 2.0 138 165
d 2.286329 0 2 udp 712 ------- 1 0.3 2.0 138 165
+ 2.286872 0 2 udp 363 ------- 1 0.3 2.0 139 166
d 2.286872 0 2 udp 363 ------- 1 0.3 2.0 139 166
r 2.301616 1 2 udp 512 ------- 2 1.3 2.2 13 145
r 2.30259 2 6 udp 512 ------- 2 2.3 6.1 2 122
r 2.308534 0 2 udp 568 ------- 1 0.3 2.0 113 113
r 2.312712 1 2 udp 512 ------- 2 1.3 2.2 14 146
- 2.313334 0 2 udp 230 ------- 1 0.3 2.0 119 128
r 2.320904 1 2 udp 512 ------- 2 1.3 2.2 15 147
+ 2.321861 1 2 udp 512 ------- 2 1.3 2.2 22 167
- 2.321861 1 2 udp 512 ------- 2 1.3 2.2 22 167
- 2.322534 0 2 udp 260 ------- 1 0.3 2.0 120 130
r 2.32307 2 6 udp 512 ------- 2 2.3 6.1 3 123
+ 2.326481 0 2 udp 76 ------- 1 0.3 2.0 140 168
+ 2.32697 1 2 udp 512 ------- 2 1.3 2.2 23 169
r 2.329118 1 2 udp 512 ------- 2 1.3 2.2 16 152
- 2.330053 1 2 udp 512 ------- 2 1.3 2.2 23 169
+ 2.331917 1 2 udp 512 ------- 2 1.3 2.2 24 170
+ 2.332004 0 2 udp 1000 ------- 1 0.3 2.0 141 171
+ 2.332004 0 2 udp 764 ------- 1 0.3 2.0 142 172
d 2.332004 0 2 udp 764 ------- 1 0.3 2.0 142 172
- 2.332934 0 2 udp 642 ------- 1 0.3 2.0 121 134
- 2.338245 1 2 udp 512 ------- 2 1.3 2.2 24 170
r 2.34355 2 6 udp 512 ------- 2 2.3 6.1 4 124
+ 2.345482 1 2 udp 512 ------- 2 1.3 2.2 25 173
- 2.346437 1 2 udp 512 ------- 2 1.3 2.2 25 173
r 2.347616 1 2 udp 512 ------- 2 1.3 2.2 17 154
r 2.348534 0 2 udp 1000 ------- 1 0.3 2.0 114 115
r 2.354974 0 2 udp 161 ------- 1 0.3 2.0 115 116
- 2.358614 0 2 udp 682 ------- 1 0.3 2.0 122 139
+ 2.359334 0 2 udp 117 ------- 1 0.3 2.0 143 174
r 2.360054 1 2 udp 512 ------- 2 1.3 2.2 18 157
r 2.368246 1 2 udp 512 ------- 2 1.3 2.2 19 158
r 2.371254 0 2 udp 407 ------- 1 0.3 2.0 116 118
r 2.373334 0 2 udp 52 ------- 1 0.3 2.0 117 126
+ 2.384308 0 2 udp 386 ------- 1 0.3 2.0 144 175
- 2.385894 0 2 udp 495 ------- 1 0.3 2.0 123 141
r 2.385979 1 2 udp 512 ------- 2 1.3 2.2 20 162
+ 2.392849 0 2 udp 47 ------- 1 0.3 2.0 145 176
r 2.394171 1 2 udp 512 ------- 2 1.3 2.2 21 163
+ 2.394618 1 2 udp 512 ------- 2 1.3 2.2 26 177
- 2.394618 1 2 udp 512 ------- 2 1.3 2.2 26 177
+ 2.396461 1 2 udp 512 ------- 2 1.3 2.2 27 178
- 2.40281 1 2 udp 512 ------- 2 1.3 2.2 27 178
- 2.405694 0 2 udp 260 ------- 1 0.3 2.0 124 142
+ 2.406952 1 2 udp 512 ------- 2 1.3 2.2 28 179
+ 2.408493 0 2 udp 811 ------- 1 0.3 2.0 146 180
+ 2.409079 1 2 udp 512 ------- 2 1.3 2.2 29 181
- 2.411002 1 2 udp 512 ------- 2 1.3 2.2 28 179
+ 2.41106 0 2 udp 419 ------- 1 0.3 2.0 147 182
d 2.41106 0 2 udp 419 ------- 1 0.3 2.0 147 182
r 2.413334 0 2 udp 1000 ------- 1 0.3 2.0 118 127
- 2.416094 0 2 udp 1000 ------- 1 0.3 2.0 125 143
- 2.419194 1 2 udp 512 ------- 2 1.3 2.2 29 181
r 2.422534 0 2 udp 230 ------- 1 0.3 2.0 119 128
+ 2.42405 0 2 udp 297 ------- 1 0.3 2.0 148 183
+ 2.428855 0 2 udp 1000 ------- 1 0.3 2.0 149 184
d 2.428855 0 2 udp 1000 ------- 1 0.3 2.0 149 184
+ 2.428855 0 2 udp 407 ------- 1 0.3 2.0 150 185
d 2.428855 0 2 udp 407 ------- 1 0.3 2.0 150 185
r 2.430053 1 2 udp 512 ------- 2 1.3 2.2 22 167
+ 2.430994 0 2 udp 760 ------- 1 0.3 2.0 151 186
d 2.430994 0 2 udp 760 ------- 1 0.3 2.0 151 186
+ 2.43158 0 2 udp 104 ------- 1 0.3 2.0 152 187
d 2.43158 0 2 udp 104 ------- 1 0.3 2.0 152 187
r 2.432934 0 2 udp 260 ------- 1 0.3 2.0 120 130
r 2.438245 1 2 udp 512 ------- 2 1.3 2.2 23 169
r 2.446437 1 2 udp 512 ------- 2 1.3 2.2 24 170
+ 2.447443 0 2 udp 96 ------- 1 0.3 2.0 153 188
d 2.447443 0 2 udp 96 ------- 1 0.3 2.0 153 188
r 2.454629 1 2 udp 512 ------- 2 1.3 2.2 25 173
- 2.456094 0 2 udp 116 ------- 1 0.3 2.0 126 144
+ 2.457315 0 2 udp 118 ------- 1 0.3 2.0 154 189
r 2.458614 0 2 udp 642 ------- 1 0.3 2.0 121 134
- 2.460734 0 2 udp 581 ------- 1 0.3 2.0 127 148
+ 2.461588 0 2 udp 286 ------- 1 0.3 2.0 155 190
+ 2.467677 1 2 udp 512 ------- 2 1.3 2.2 30 191
- 2.467677 1 2 udp 512 ------- 2 1.3 2.2 30 191
- 2.483974 0 2 udp 1000 ------- 1 0.3 2.0 128 149
+ 2.484058 1 2 udp 512 ------- 2 1.3 2.2 31 192
- 2.484058 1 2 udp 512 ------- 2 1.3 2.2 31 192
r 2.485894 0 2 udp 682 ------- 1 0.3 2.0 122 139
+ 2.50077 1 2 udp 512 ------- 2 1.3 2.2 32 193
- 2.50077 1 2 udp 512 ------- 2 1.3 2.2 32 193
+ 2.501005 0 2 udp 482 ------- 1 0.3 2.0 156 194
r 2.50281 1 2 udp 512 ------- 2 1.3 2.2 26 177
r 2.505694 0 2 udp 495 ------- 1 0.3 2.0 123 141
r 2.511002 1 2 udp 512 ------- 2 1.3 2.2 27 178
+ 2.511587 1 2 udp 512 ------- 2 1.3 2.2 33 195
- 2.511587 1 2 udp 512 ------- 2 1.3 2.2 33 195
r 2.516094 0 2 udp 260 ------- 1 0.3 2.0 124 142
r 2.519194 1 2 udp 512 ------- 2 1.3 2.2 28 179
- 2.523974 0 2 udp 581 ------- 1 0.3 2.0 129 150
+ 2.524514 0 2 udp 445 ------- 1 0.3 2.0 157 196
r 2.527386 1 2 udp 512 ------- 2 1.3 2.2 29 181
+ 2.539569 0 2 udp 1000 ------- 1 0.3 2.0 158 197
d 2.539569 0 2 udp 1000 ------- 1 0.3 2.0 158 197
+ 2.539569 0 2 udp 797 ------- 1 0.3 2.0 159 198
d 2.539569 0 2 udp 797 ------- 1 0.3 2.0 159 198
+ 2.546713 0 2 udp 498 ------- 1 0.3 2.0 160 199
d 2.546713 0 2 udp 498 ------- 1 0.3 2.0 160 199
- 2.547214 0 2 udp 333 ------- 1 0.3 2.0 130 151
r 2.556094 0 2 udp 1000 ------- 1 0.3 2.0 125 143
- 2.560534 0 2 udp 787 ------- 1 0.3 2.0 131 153
r 2.560734 0 2 udp 116 ------- 1 0.3 2.0 126 144
+ 2.565042 1 2 udp 512 ------- 2 1.3 2.2 34 200
- 2.565042 1 2 udp 512 ------- 2 1.3 2.2 34 200
+ 2.575686 1 2 udp 512 ------- 2 1.3 2.2 35 201
- 2.575686 1 2 udp 512 ------- 2 1.3 2.2 35 201
r 2.575869 1 2 udp 512 ------- 2 1.3 2.2 30 191
+ 2.577196 0 2 udp 1000 ------- 1 0.3 2.0 161 202
+ 2.577196 0 2 udp 1000 ------- 1 0.3 2.0 162 203
+ 2.577196 0 2 udp 779 ------- 1 0.3 2.0 163 204
d 2.577196 0 2 udp 779 ------- 1 0.3 2.0 163 204
r 2.583974 0 2 udp 581 ------- 1 0.3 2.0 127 148
+ 2.588356 0 2 udp 839 ------- 1 0.3 2.0 164 205
d 2.588356 0 2 udp 839 ------- 1 0.3 2.0 164 205
+ 2.588985 1 2 udp 512 ------- 2 1.3 2.2 36 206
- 2.588985 1 2 udp 512 ------- 2 1.3 2.2 36 206
+ 2.59092 1 2 udp 512 ------- 2 1.3 2.2 37 207
- 2.592014 0 2 udp 252 ------- 1 0.3 2.0 132 155
r 2.59225 1 2 udp 512 ------- 2 1.3 2.2 31 192
+ 2.594854 1 2 udp 512 ------- 2 1.3 2.2 38 208
- 2.597177 1 2 udp 512 ------- 2 1.3 2.2 37 207
- 2.602094 0 2 udp 462 ------- 1 0.3 2.0 133 156
- 2.605369 1 2 udp 512 ------- 2 1.3 2.2 38 208
r 2.608962 1 2 udp 512 ------- 2 1.3 2.2 32 193
r 2.619779 1 2 udp 512 ------- 2 1.3 2.2 33 195
- 2.620574 0 2 udp 458 ------- 1 0.3 2.0 134 159
r 2.623974 0 2 udp 1000 ------- 1 0.3 2.0 128 149
- 2.638894 0 2 udp 409 ------- 1 0.3 2.0 135 160
+ 2.639621 0 2 udp 14 ------- 1 0.3 2.0 165 209
+ 2.641983 1 2 udp 512 ------- 2 1.3 2.2 39 210
- 2.641983 1 2 udp 512 ------- 2 1.3 2.2 39 210
r 2.647214 0 2 udp 581 ------- 1 0.3 2.0 129 150
- 2.655254 0 2 udp 5 ------- 1 0.3 2.0 136 161
- 2.655454 0 2 udp 1000 ------- 1 0.3 2.0 137 164
+ 2.656749 0 2 udp 950 ------- 1 0.3 2.0 166 211
r 2.660534 0 2 udp 333 ------- 1 0.3 2.0 130 151
+ 2.662639 1 2 udp 512 ------- 2 1.3 2.2 40 212
- 2.662639 1 2 udp 512 ------- 2 1.3 2.2 40 212
+ 2.662821 1 2 udp 512 ------- 2 1.3 2.2 41 213
+ 2.670315 1 2 udp 512 ------- 2 1.3 2.2 42 214
- 2.670831 1 2 udp 512 ------- 2 1.3 2.2 41 213
r 2.673234 1 2 udp 512 ------- 2 1.3 2.2 34 200
- 2.679023 1 2 udp 512 ------- 2 1.3 2.2 42 214
r 2.683878 1 2 udp 512 ------- 2 1.3 2.2 35 201
+ 2.687564 0 2 udp 739 ------- 1 0.3 2.0 167 215
+ 2.689344 0 2 udp 185 ------- 1 0.3 2.0 168 216
r 2.692014 0 2 udp 787 ------- 1 0.3 2.0 131 153
- 2.695454 0 2 udp 76 ------- 1 0.3 2.0 140 168
+ 2.695477 1 2 udp 512 ------- 2 1.3 2.2 43 217
- 2.695477 1 2 udp 512 ------- 2 1.3 2.2 43 217
r 2.697177 1 2 udp 512 ------- 2 1.3 2.2 36 206
- 2.698494 0 2 udp 1000 ------- 1 0.3 2.0 141 171
r 2.702094 0 2 udp 252 ------- 1 0.3 2.0 132 155
r 2.705369 1 2 udp 512 ------- 2 1.3 2.2 37 207
r 2.713561 1 2 udp 512 ------- 2 1.3 2.2 38 208
r 2.720574 0 2 udp 462 ------- 1 0.3 2.0 133 156
+ 2.728465 1 2 udp 512 ------- 2 1.3 2.2 44 218
- 2.728465 1 2 udp 512 ------- 2 1.3 2.2 44 218
+ 2.733963 0 2 udp 296 ------- 1 0.3 2.0 169 219
- 2.738494 0 2 udp 117 ------- 1 0.3 2.0 143 174
r 2.738894 0 2 udp 458 ------- 1 0.3 2.0 134 159
+ 2.739892 1 2 udp 512 ------- 2 1.3 2.2 45 220
- 2.739892 1 2 udp 512 ------- 2 1.3 2.2 45 220
+ 2.741531 1 2 udp 512 ------- 2 1.3 2.2 46 221
- 2.743174 0 2 udp 386 ------- 1 0.3 2.0 144 175
- 2.748084 1 2 udp 512 ------- 2 1.3 2.2 46 221
r 2.750175 1 2 udp 512 ------- 2 1.3 2.2 39 210
r 2.755254 0 2 udp 409 ------- 1 0.3 2.0 135 160
r 2.755454 0 2 udp 5 ------- 1 0.3 2.0 136 161
- 2.758614 0 2 udp 47 ------- 1 0.3 2.0 145 176
+ 2.759775 1 2 udp 512 ------- 2 1.3 2.2 47 222
- 2.759775 1 2 udp 512 ------- 2 1.3 2.2 47 222
- 2.760494 0 2 udp 811 ------- 1 0.3 2.0 146 180
+ 2.767653 1 2 udp 512 ------- 2 1.3 2.2 48 223
- 2.767967 1 2 udp 512 ------- 2 1.3 2.2 48 223
r 2.770831 1 2 udp 512 ------- 2 1.3 2.2 40 212
r 2.779023 1 2 udp 512 ------- 2 1.3 2.2 41 213
r 2.787215 1 2 udp 512 ------- 2 1.3 2.2 42 214
- 2.792934 0 2 udp 297 ------- 1 0.3 2.0 148 183
r 2.795454 0 2 udp 1000 ------- 1 0.3 2.0 137 164
r 2.798494 0 2 udp 76 ------- 1 0.3 2.0 140 168
+ 2.802601 1 2 udp 512 ------- 2 1.3 2.2 49 224
- 2.802601 1 2 udp 512 ------- 2 1.3 2.2 49 224
r 2.803669 1 2 udp 512 ------- 2 1.3 2.2 43 217
- 2.804814 0 2 udp 118 ------- 1 0.3 2.0 154 189
- 2.809534 0 2 udp 286 ------- 1 0.3 2.0 155 190
- 2.820974 0 2 udp 482 ------- 1 0.3 2.0 156 194
+ 2.83139 0 2 udp 389 ------- 1 0.3 2.0 170 225
+ 2.832785 1 2 udp 512 ------- 2 1.3 2.2 50 226
- 2.832785 1 2 udp 512 ------- 2 1.3 2.2 50 226